STRUCTURE FOR MOLECULE SOL
24000
    1SOL     OW    1   1.966   2.419   2.641
    1SOL    HW1    2   1.893   2.459   2.593
    1SOL    HW2    3   1.994   2.486   2.702
    1SOL     MW    4   1.960   2.432   2.643
    2SOL     OW    5   3.443   5.124   5.127
    2SOL    HW1    6   3.446   5.076   5.044
    2SOL    HW2    7   3.353   5.153   5.135
    2SOL     MW    8   3.433   5.121   5.118
    3SOL     OW    9   1.086   5.053   4.748
    3SOL    HW1   10   0.990   5.064   4.746
    3SOL    HW2   11   1.101   4.994   4.821
    3SOL     MW   12   1.076   5.047   4.757
    4SOL     OW   13   5.196   5.953   5.232
    4SOL    HW1   14   5.103   5.940   5.211
    4SOL    HW2   15   5.240   5.948   5.148
    4SOL     MW   16   5.190   5.951   5.219
    5SOL     OW   17   4.296   1.068   4.363
    5SOL    HW1   18   4.359   1.120   4.415
    5SOL    HW2   19   4.231   1.041   4.426
    5SOL     MW   20   4.296   1.071   4.377
    6SOL     OW   21   4.430   1.546   0.758
    6SOL    HW1   22   4.355   1.605   0.742
    6SOL    HW2   23   4.454   1.515   0.671
    6SOL     MW   24   4.424   1.549   0.746
    7SOL     OW   25   1.009   2.207   0.567
    7SOL    HW1   26   1.020   2.153   0.488
    7SOL    HW2   27   0.917   2.198   0.589
    7SOL     MW   28   0.999   2.199   0.560
    8SOL     OW   29   1.652   1.849   1.518
    8SOL    HW1   30   1.616   1.784   1.458
    8SOL    HW2   31   1.738   1.816   1.539
    8SOL     MW   32   1.658   1.837   1.513
    9SOL     OW   33   1.302   2.295   2.330
    9SOL    HW1   34   1.264   2.212   2.300
    9SOL    HW2   35   1.295   2.291   2.425
    9SOL     MW   36   1.297   2.284   2.338
   10SOL     OW   37   1.490   4.660   2.482
   10SOL    HW1   38   1.533   4.742   2.455
   10SOL    HW2   39   1.548   4.624   2.549
   10SOL     MW   40   1.502   4.665   2.487
   11SOL     OW   41   4.682   4.814   3.192
   11SOL    HW1   42   4.760   4.809   3.136
   11SOL    HW2   43   4.703   4.760   3.267
   11SOL     MW   44   4.694   4.807   3.194
   12SOL     OW   45   4.807   4.322   0.156
   12SOL    HW1   46   4.842   4.237   0.128
   12SOL    HW2   47   4.716   4.304   0.178
   12SOL     MW   48   4.800   4.309   0.155
   13SOL     OW   49   1.022   4.421   5.780
   13SOL    HW1   50   1.024   4.362   5.704
   13SOL    HW2   51   1.019   4.508   5.743
   13SOL     MW   52   1.022   4.424   5.767
   14SOL     OW   53   3.619   5.591   3.348
   14SOL    HW1   54   3.609   5.501   3.380
   14SOL    HW2   55   3.692   5.626   3.398
   14SOL     MW   56   3.627   5.584   3.357
   15SOL     OW   57   5.838   5.480   4.535
   15SOL    HW1   58   5.812   5.435   4.616
   15SOL    HW2   59   5.932   5.490   4.543
   15SOL     MW   60   5.846   5.475   4.545
   16SOL     OW   61   4.704   2.925   3.110
   16SOL    HW1   62   4.670   2.988   3.046
   16SOL    HW2   63   4.658   2.946   3.191
   16SOL     MW   64   4.694   2.935   3.112
   17SOL     OW   65   2.445   1.618   1.282
   17SOL    HW1   66   2.518   1.643   1.223
   17SOL    HW2   67   2.485   1.613   1.367
   17SOL     MW   68   2.459   1.621   1.285
   18SOL     OW   69   0.093   2.136   1.242
   18SOL    HW1   70   0.141   2.153   1.324
   18SOL    HW2   71   0.040   2.214   1.229
   18SOL     MW   72   0.092   2.147   1.251
   19SOL     OW   73   4.779   0.272   5.136
   19SOL    HW1   74   4.753   0.214   5.208
   19SOL    HW2   75   4.712   0.339   5.135
   19SOL     MW   76   4.768   0.273   5.144
   20SOL     OW   77   1.950   1.426   5.875
   20SOL    HW1   78   1.920   1.436   5.784
   20SOL    HW2   79   1.908   1.497   5.921
   20SOL     MW   80   1.941   1.435   5.870
   21SOL     OW   81   5.270   1.397   3.793
   21SOL    HW1   82   5.225   1.482   3.793
   21SOL    HW2   83   5.305   1.390   3.881
   21SOL     MW   84   5.269   1.407   3.804
   22SOL     OW   85   5.424   5.655   5.187
   22SOL    HW1   86   5.334   5.686   5.196
   22SOL    HW2   87   5.446   5.620   5.273
   22SOL     MW   88   5.416   5.654   5.198
   23SOL     OW   89   2.715   0.132   5.893
   23SOL    HW1   90   2.622   0.106   5.890
   23SOL    HW2   91   2.713   0.227   5.886
   23SOL     MW   92   2.704   0.140   5.892
   24SOL     OW   93   1.952   1.195   5.255
   24SOL    HW1   94   1.860   1.216   5.272
   24SOL    HW2   95   1.950   1.111   5.212
   24SOL     MW   96   1.940   1.188   5.252
   25SOL     OW   97   4.938   2.442   2.865
   25SOL    HW1   98   4.908   2.507   2.800
   25SOL    HW2   99   4.863   2.427   2.920
   25SOL     MW  100   4.925   2.448   2.863
   26SOL     OW  101   4.083   2.178   1.704
   26SOL    HW1  102   4.004   2.124   1.715
   26SOL    HW2  103   4.052   2.267   1.707
   26SOL     MW  104   4.070   2.182   1.706
   27SOL     OW  105   3.180   4.690   5.949
   27SOL    HW1  106   3.168   4.783   5.930
   27SOL    HW2  107   3.119   4.646   5.891
   27SOL     MW  108   3.171   4.696   5.940
   28SOL     OW  109   5.072   0.990   0.599
   28SOL    HW1  110   5.067   1.061   0.534
   28SOL    HW2  111   5.038   1.028   0.678
   28SOL     MW  112   5.067   1.003   0.600
   29SOL     OW  113   1.881   0.627   1.592
   29SOL    HW1  114   1.906   0.537   1.570
   29SOL    HW2  115   1.860   0.666   1.508
   29SOL     MW  116   1.882   0.621   1.579
   30SOL     OW  117   2.945   4.165   4.973
   30SOL    HW1  118   2.899   4.081   4.967
   30SOL    HW2  119   2.984   4.165   5.059
   30SOL     MW  120   2.944   4.155   4.982
   31SOL     OW  121   2.166   4.204   3.159
   31SOL    HW1  122   2.108   4.252   3.100
   31SOL    HW2  123   2.109   4.175   3.230
   31SOL     MW  124   2.152   4.206   3.160
   32SOL     OW  125   4.854   4.951   6.040
   32SOL    HW1  126   4.917   5.010   5.999
   32SOL    HW2  127   4.785   5.008   6.071
   32SOL     MW  128   4.854   4.965   6.039
   33SOL     OW  129   4.360   2.169   5.030
   33SOL    HW1  130   4.423   2.205   5.094
   33SOL    HW2  131   4.340   2.242   4.973
   33SOL     MW  132   4.366   2.182   5.031
   34SOL     OW  133   0.117   5.382   2.902
   34SOL    HW1  134   0.196   5.329   2.892
   34SOL    HW2  135   0.059   5.351   2.833
   34SOL     MW  136   0.120   5.372   2.892
   35SOL     OW  137   1.974   3.303   0.845
   35SOL    HW1  138   2.042   3.264   0.902
   35SOL    HW2  139   2.020   3.324   0.765
   35SOL     MW  140   1.988   3.301   0.843
   36SOL     OW  141   2.677   4.446   0.199
   36SOL    HW1  142   2.588   4.409   0.206
   36SOL    HW2  143   2.726   4.378   0.155
   36SOL     MW  144   2.672   4.433   0.195
   37SOL     OW  145   4.029   1.373   5.876
   37SOL    HW1  146   4.086   1.449   5.891
   37SOL    HW2  147   3.955   1.388   5.934
   37SOL     MW  148   4.027   1.384   5.885
   38SOL     OW  149   2.443   5.010   5.820
   38SOL    HW1  150   2.369   4.988   5.763
   38SOL    HW2  151   2.462   4.929   5.866
   38SOL     MW  152   2.437   4.998   5.818
   39SOL     OW  153   4.628   0.264   5.704
   39SOL    HW1  154   4.700   0.263   5.768
   39SOL    HW2  155   4.566   0.325   5.741
   39SOL     MW  156   4.629   0.271   5.716
   40SOL     OW  157   3.134   2.308   0.084
   40SOL    HW1  158   3.121   2.335   0.176
   40SOL    HW2  159   3.132   2.389   0.035
   40SOL     MW  160   3.132   2.321   0.090
   41SOL     OW  161   5.357   1.734   2.717
   41SOL    HW1  162   5.283   1.769   2.767
   41SOL    HW2  163   5.335   1.753   2.626
   41SOL     MW  164   5.346   1.740   2.712
   42SOL     OW  165   3.273   0.828   4.355
   42SOL    HW1  166   3.329   0.874   4.292
   42SOL    HW2  167   3.296   0.866   4.439
   42SOL     MW  168   3.283   0.839   4.357
   43SOL     OW  169   2.838   1.241   5.649
   43SOL    HW1  170   2.928   1.262   5.677
   43SOL    HW2  171   2.835   1.265   5.558
   43SOL     MW  172   2.848   1.247   5.642
   44SOL     OW  173   4.008   5.219   2.392
   44SOL    HW1  174   4.035   5.277   2.320
   44SOL    HW2  175   4.090   5.185   2.426
   44SOL     MW  176   4.021   5.222   2.387
   45SOL     OW  177   0.425   2.040   3.471
   45SOL    HW1  178   0.423   2.015   3.378
   45SOL    HW2  179   0.502   1.996   3.505
   45SOL     MW  180   0.434   2.032   3.463
   46SOL     OW  181   2.413   5.745   3.196
   46SOL    HW1  182   2.363   5.697   3.129
   46SOL    HW2  183   2.449   5.819   3.150
   46SOL     MW  184   2.411   5.748   3.182
   47SOL     OW  185   3.760   2.076   2.231
   47SOL    HW1  186   3.665   2.062   2.240
   47SOL    HW2  187   3.774   2.076   2.137
   47SOL     MW  188   3.750   2.074   2.221
   48SOL     OW  189   4.599   1.243   5.298
   48SOL    HW1  190   4.655   1.321   5.299
   48SOL    HW2  191   4.521   1.270   5.252
   48SOL     MW  192   4.597   1.255   5.293
   49SOL     OW  193   3.850   5.834   2.956
   49SOL    HW1  194   3.937   5.821   2.996
   49SOL    HW2  195   3.866   5.822   2.863
   49SOL     MW  196   3.863   5.831   2.950
   50SOL     OW  197   2.080   3.237   5.352
   50SOL    HW1  198   2.035   3.256   5.435
   50SOL    HW2  199   2.111   3.321   5.322
   50SOL     MW  200   2.079   3.249   5.359
   51SOL     OW  201   5.356   2.638   1.211
   51SOL    HW1  202   5.347   2.633   1.115
   51SOL    HW2  203   5.282   2.689   1.239
   51SOL     MW  204   5.346   2.643   1.202
   52SOL     OW  205   1.537   0.689   4.909
   52SOL    HW1  206   1.561   0.779   4.885
   52SOL    HW2  207   1.535   0.690   5.004
   52SOL     MW  208   1.540   0.700   4.917
   53SOL     OW  209   3.467   3.425   0.872
   53SOL    HW1  210   3.445   3.344   0.918
   53SOL    HW2  211   3.557   3.413   0.844
   53SOL     MW  212   3.475   3.414   0.874
   54SOL     OW  213   0.076   5.800   1.887
   54SOL    HW1  214   0.015   5.809   1.813
   54SOL    HW2  215   0.160   5.781   1.846
   54SOL     MW  216   0.079   5.799   1.873
   55SOL     OW  217   4.728   1.441   0.634
   55SOL    HW1  218   4.812   1.487   0.622
   55SOL    HW2  219   4.741   1.386   0.710
   55SOL     MW  220   4.739   1.440   0.642
   56SOL     OW  221   2.406   2.469   4.142
   56SOL    HW1  222   2.475   2.524   4.103
   56SOL    HW2  223   2.417   2.480   4.235
   56SOL     MW  224   2.416   2.477   4.148
   57SOL     OW  225   0.457   5.920   4.407
   57SOL    HW1  226   0.411   5.843   4.441
   57SOL    HW2  227   0.512   5.885   4.338
   57SOL     MW  228   0.458   5.906   4.403
   58SOL     OW  229   4.626   3.312   1.870
   58SOL    HW1  230   4.644   3.223   1.902
   58SOL    HW2  231   4.696   3.364   1.907
   58SOL     MW  232   4.637   3.307   1.878
   59SOL     OW  233   4.981   4.122   1.128
   59SOL    HW1  234   4.975   4.127   1.224
   59SOL    HW2  235   5.014   4.035   1.111
   59SOL     MW  236   4.984   4.113   1.137
   60SOL     OW  237   3.766   0.190   0.801
   60SOL    HW1  238   3.702   0.128   0.837
   60SOL    HW2  239   3.803   0.233   0.877
   60SOL     MW  240   3.763   0.188   0.814
   61SOL     OW  241   0.218   3.466   0.243
   61SOL    HW1  242   0.252   3.378   0.223
   61SOL    HW2  243   0.191   3.460   0.334
   61SOL     MW  244   0.219   3.454   0.252
   62SOL     OW  245   0.691   1.159   3.718
   62SOL    HW1  246   0.632   1.233   3.735
   62SOL    HW2  247   0.665   1.129   3.632
   62SOL     MW  248   0.680   1.165   3.710
   63SOL     OW  249   4.076   1.099   0.818
   63SOL    HW1  250   3.984   1.083   0.794
   63SOL    HW2  251   4.107   1.015   0.848
   63SOL     MW  252   4.069   1.087   0.818
   64SOL     OW  253   4.680   0.658   1.696
   64SOL    HW1  254   4.625   0.736   1.711
   64SOL    HW2  255   4.732   0.680   1.621
   64SOL     MW  256   4.679   0.670   1.689
   65SOL     OW  257   3.824   3.096   3.202
   65SOL    HW1  258   3.910   3.135   3.217
   65SOL    HW2  259   3.835   3.004   3.226
   65SOL     MW  260   3.836   3.090   3.207
   66SOL     OW  261   6.015   4.926   0.299
   66SOL    HW1  262   5.942   4.968   0.345
   66SOL    HW2  263   5.998   4.943   0.207
   66SOL     MW  264   6.004   4.933   0.294
   67SOL     OW  265   4.962   3.726   5.865
   67SOL    HW1  266   4.907   3.648   5.851
   67SOL    HW2  267   4.993   3.717   5.954
   67SOL     MW  268   4.959   3.715   5.874
   68SOL     OW  269   0.156   5.710   0.461
   68SOL    HW1  270   0.193   5.631   0.421
   68SOL    HW2  271   0.094   5.677   0.525
   68SOL     MW  272   0.153   5.697   0.463
   69SOL     OW  273   1.789   3.804   5.170
   69SOL    HW1  274   1.787   3.896   5.142
   69SOL    HW2  275   1.846   3.803   5.245
   69SOL     MW  276   1.795   3.815   5.175
   70SOL     OW  277   1.014   2.684   3.631
   70SOL    HW1  278   0.960   2.750   3.675
   70SOL    HW2  279   1.098   2.688   3.676
   70SOL     MW  280   1.017   2.692   3.642
   71SOL     OW  281   4.520   1.780   0.703
   71SOL    HW1  282   4.453   1.842   0.674
   71SOL    HW2  283   4.482   1.737   0.779
   71SOL     MW  284   4.507   1.782   0.708
   72SOL     OW  285   3.386   2.515   1.830
   72SOL    HW1  286   3.438   2.471   1.898
   72SOL    HW2  287   3.419   2.479   1.749
   72SOL     MW  288   3.396   2.505   1.829
   73SOL     OW  289   3.580   3.533   2.584
   73SOL    HW1  290   3.554   3.460   2.527
   73SOL    HW2  291   3.525   3.524   2.661
   73SOL     MW  292   3.571   3.523   2.586
   74SOL     OW  293   5.349   3.319   1.008
   74SOL    HW1  294   5.271   3.345   1.058
   74SOL    HW2  295   5.408   3.282   1.072
   74SOL     MW  296   5.346   3.318   1.021
   75SOL     OW  297   3.961   0.128   4.296
   75SOL    HW1  298   3.984   0.190   4.227
   75SOL    HW2  299   3.869   0.142   4.311
   75SOL     MW  300   3.953   0.137   4.290
   76SOL     OW  301   4.101   0.843   0.126
   76SOL    HW1  302   4.130   0.762   0.171
   76SOL    HW2  303   4.104   0.820   0.034
   76SOL     MW  304   4.105   0.830   0.121
   77SOL     OW  305   5.514   0.040   4.733
   77SOL    HW1  306   5.456  -0.013   4.789
   77SOL    HW2  307   5.501   0.005   4.646
   77SOL     MW  308   5.505   0.030   4.730
   78SOL     OW  309   3.479   3.413   3.586
   78SOL    HW1  310   3.483   3.318   3.575
   78SOL    HW2  311   3.476   3.426   3.680
   78SOL     MW  312   3.479   3.403   3.596
   79SOL     OW  313   1.333   4.927   2.780
   79SOL    HW1  314   1.375   4.852   2.824
   79SOL    HW2  315   1.348   4.911   2.687
   79SOL     MW  316   1.340   4.916   2.774
   80SOL     OW  317   5.809   2.223   2.155
   80SOL    HW1  318   5.888   2.182   2.190
   80SOL    HW2  319   5.815   2.210   2.061
   80SOL     MW  320   5.819   2.216   2.148
   81SOL     OW  321   5.632   2.066   4.064
   81SOL    HW1  322   5.541   2.038   4.078
   81SOL    HW2  323   5.629   2.160   4.075
   81SOL     MW  324   5.620   2.074   4.067
   82SOL     OW  325   3.289   3.692   2.745
   82SOL    HW1  326   3.206   3.739   2.730
   82SOL    HW2  327   3.289   3.624   2.679
   82SOL     MW  328   3.279   3.690   2.735
   83SOL     OW  329   1.443   1.880   3.454
   83SOL    HW1  330   1.415   1.836   3.373
   83SOL    HW2  331   1.510   1.823   3.489
   83SOL     MW  332   1.448   1.868   3.448
   84SOL     OW  333   2.974   1.014   4.416
   84SOL    HW1  334   2.970   0.929   4.370
   84SOL    HW2  335   3.010   0.992   4.501
   84SOL     MW  336   2.978   1.001   4.420
   85SOL     OW  337   3.070   4.010   3.104
   85SOL    HW1  338   3.112   3.938   3.055
   85SOL    HW2  339   3.093   3.993   3.194
   85SOL     MW  340   3.078   3.999   3.108
   86SOL     OW  341   2.313   2.657   4.593
   86SOL    HW1  342   2.333   2.725   4.528
   86SOL    HW2  343   2.224   2.631   4.572
   86SOL     MW  344   2.305   2.662   4.582
   87SOL     OW  345   5.318   2.051   3.693
   87SOL    HW1  346   5.408   2.050   3.657
   87SOL    HW2  347   5.330   2.071   3.785
   87SOL     MW  348   5.331   2.053   3.700
   88SOL     OW  349   4.268   0.285   1.229
   88SOL    HW1  350   4.229   0.342   1.296
   88SOL    HW2  351   4.227   0.312   1.148
   88SOL     MW  352   4.259   0.295   1.228
   89SOL     OW  353   0.629   1.231   1.081
   89SOL    HW1  354   0.583   1.206   1.000
   89SOL    HW2  355   0.642   1.149   1.127
   89SOL     MW  356   0.625   1.218   1.076
   90SOL     OW  357   2.818   4.606   1.684
   90SOL    HW1  358   2.793   4.518   1.655
   90SOL    HW2  359   2.825   4.599   1.779
   90SOL     MW  360   2.816   4.595   1.692
   91SOL     OW  361   1.529   0.227   3.564
   91SOL    HW1  362   1.605   0.175   3.535
   91SOL    HW2  363   1.546   0.244   3.655
   91SOL     MW  364   1.540   0.223   3.571
   92SOL     OW  365   2.361   3.988   5.520
   92SOL    HW1  366   2.273   3.950   5.514
   92SOL    HW2  367   2.358   4.043   5.597
   92SOL     MW  368   2.350   3.990   5.528
   93SOL     OW  369   0.045   4.778   5.167
   93SOL    HW1  370  -0.010   4.778   5.246
   93SOL    HW2  371   0.002   4.840   5.109
   93SOL     MW  372   0.033   4.785   5.169
   94SOL     OW  373   0.831   0.278   2.150
   94SOL    HW1  374   0.882   0.354   2.182
   94SOL    HW2  375   0.821   0.295   2.057
   94SOL     MW  376   0.836   0.289   2.143
   95SOL     OW  377   1.534   3.188   1.667
   95SOL    HW1  378   1.517   3.217   1.757
   95SOL    HW2  379   1.599   3.119   1.677
   95SOL     MW  380   1.540   3.183   1.679
   96SOL     OW  381   3.176   1.225   2.772
   96SOL    HW1  382   3.153   1.148   2.720
   96SOL    HW2  383   3.235   1.192   2.839
   96SOL     MW  384   3.180   1.212   2.774
   97SOL     OW  385   4.111   2.696   0.256
   97SOL    HW1  386   4.169   2.640   0.204
   97SOL    HW2  387   4.106   2.776   0.206
   97SOL     MW  388   4.117   2.698   0.243
   98SOL     OW  389   1.156   2.697   2.811
   98SOL    HW1  390   1.233   2.642   2.832
   98SOL    HW2  391   1.101   2.691   2.888
   98SOL     MW  392   1.159   2.689   2.823
   99SOL     OW  393   0.202   2.258   1.554
   99SOL    HW1  394   0.214   2.163   1.564
   99SOL    HW2  395   0.285   2.289   1.521
   99SOL     MW  396   0.213   2.250   1.551
  100SOL     OW  397   1.728   0.433   1.681
  100SOL    HW1  398   1.652   0.442   1.622
  100SOL    HW2  399   1.713   0.499   1.748
  100SOL     MW  400   1.717   0.442   1.682
  101SOL     OW  401   0.063   3.930   5.564
  101SOL    HW1  402   0.116   4.005   5.537
  101SOL    HW2  403   0.010   3.963   5.636
  101SOL     MW  404   0.063   3.943   5.569
  102SOL     OW  405   1.267   4.861   0.566
  102SOL    HW1  406   1.250   4.782   0.513
  102SOL    HW2  407   1.191   4.868   0.622
  102SOL     MW  408   1.256   4.852   0.566
  103SOL     OW  409   4.786   2.832   3.839
  103SOL    HW1  410   4.788   2.894   3.765
  103SOL    HW2  411   4.705   2.785   3.827
  103SOL     MW  412   4.777   2.834   3.829
  104SOL     OW  413   3.254   5.723   4.481
  104SOL    HW1  414   3.213   5.637   4.468
  104SOL    HW2  415   3.195   5.767   4.542
  104SOL     MW  416   3.242   5.718   4.487
  105SOL     OW  417   4.809   1.829   0.473
  105SOL    HW1  418   4.872   1.756   0.487
  105SOL    HW2  419   4.780   1.817   0.383
  105SOL     MW  420   4.813   1.818   0.464
  106SOL     OW  421   3.298   5.894   2.042
  106SOL    HW1  422   3.343   5.828   1.988
  106SOL    HW2  423   3.352   5.971   2.034
  106SOL     MW  424   3.310   5.895   2.035
  107SOL     OW  425   2.221   4.559   0.134
  107SOL    HW1  426   2.291   4.585   0.074
  107SOL    HW2  427   2.263   4.555   0.219
  107SOL     MW  428   2.234   4.562   0.137
  108SOL     OW  429   0.256   3.156   6.040
  108SOL    HW1  430   0.241   3.068   6.076
  108SOL    HW2  431   0.205   3.157   5.960
  108SOL     MW  432   0.248   3.146   6.035
  109SOL     OW  433   0.341   5.590   3.770
  109SOL    HW1  434   0.339   5.502   3.731
  109SOL    HW2  435   0.360   5.575   3.862
  109SOL     MW  436   0.343   5.578   3.776
  110SOL     OW  437   5.092   0.695   4.655
  110SOL    HW1  438   5.175   0.741   4.666
  110SOL    HW2  439   5.117   0.603   4.648
  110SOL     MW  440   5.105   0.689   4.656
  111SOL     OW  441   5.120   0.985   5.267
  111SOL    HW1  442   5.093   0.923   5.199
  111SOL    HW2  443   5.042   0.998   5.320
  111SOL     MW  444   5.107   0.979   5.265
  112SOL     OW  445   4.121   2.013   1.863
  112SOL    HW1  446   4.036   2.057   1.873
  112SOL    HW2  447   4.131   2.002   1.769
  112SOL     MW  448   4.112   2.017   1.853
  113SOL     OW  449   4.861   0.792   6.044
  113SOL    HW1  450   4.812   0.775   5.963
  113SOL    HW2  451   4.948   0.817   6.015
  113SOL     MW  452   4.865   0.793   6.031
  114SOL     OW  453   3.826   2.922   1.008
  114SOL    HW1  454   3.766   2.880   1.071
  114SOL    HW2  455   3.873   2.850   0.968
  114SOL     MW  456   3.825   2.909   1.011
  115SOL     OW  457   5.504   2.257   5.708
  115SOL    HW1  458   5.454   2.286   5.631
  115SOL    HW2  459   5.456   2.294   5.781
  115SOL     MW  460   5.492   2.265   5.707
  116SOL     OW  461   4.666   5.891   6.026
  116SOL    HW1  462   4.728   5.931   5.964
  116SOL    HW2  463   4.712   5.815   6.060
  116SOL     MW  464   4.679   5.887   6.023
  117SOL     OW  465   1.786   0.658   3.123
  117SOL    HW1  466   1.851   0.722   3.154
  117SOL    HW2  467   1.829   0.617   3.049
  117SOL     MW  468   1.799   0.661   3.118
  118SOL     OW  469   1.919   0.391   2.133
  118SOL    HW1  470   1.841   0.445   2.115
  118SOL    HW2  471   1.935   0.345   2.051
  118SOL     MW  472   1.911   0.392   2.121
  119SOL     OW  473   4.140   1.481   1.198
  119SOL    HW1  474   4.178   1.393   1.192
  119SOL    HW2  475   4.104   1.485   1.286
  119SOL     MW  476   4.140   1.471   1.208
  120SOL     OW  477   4.084   1.914   4.949
  120SOL    HW1  478   4.139   1.982   4.989
  120SOL    HW2  479   4.140   1.837   4.947
  120SOL     MW  480   4.098   1.913   4.954
  121SOL     OW  481   2.307   4.064   2.658
  121SOL    HW1  482   2.336   4.092   2.745
  121SOL    HW2  483   2.253   4.137   2.628
  121SOL     MW  484   2.304   4.076   2.665
  122SOL     OW  485   1.416   5.219   2.411
  122SOL    HW1  486   1.507   5.250   2.420
  122SOL    HW2  487   1.379   5.228   2.499
  122SOL     MW  488   1.423   5.224   2.423
  123SOL     OW  489   0.402   2.845   3.345
  123SOL    HW1  490   0.372   2.936   3.334
  123SOL    HW2  491   0.401   2.810   3.257
  123SOL     MW  492   0.399   2.852   3.333
  124SOL     OW  493   3.655   2.420   5.576
  124SOL    HW1  494   3.742   2.419   5.617
  124SOL    HW2  495   3.673   2.414   5.483
  124SOL     MW  496   3.668   2.419   5.570
  125SOL     OW  497   0.648   0.024   1.653
  125SOL    HW1  498   0.725   0.042   1.598
  125SOL    HW2  499   0.594  -0.033   1.599
  125SOL     MW  500   0.651   0.020   1.640
  126SOL     OW  501   5.747   0.755   3.134
  126SOL    HW1  502   5.767   0.847   3.152
  126SOL    HW2  503   5.707   0.756   3.047
  126SOL     MW  504   5.744   0.766   3.126
  127SOL     OW  505   6.038   0.141   2.270
  127SOL    HW1  506   6.067   0.193   2.345
  127SOL    HW2  507   6.064   0.193   2.195
  127SOL     MW  508   6.044   0.154   2.270
  128SOL     OW  509   2.729   1.172   1.013
  128SOL    HW1  510   2.676   1.243   1.049
  128SOL    HW2  511   2.726   1.186   0.919
  128SOL     MW  512   2.722   1.182   1.006
  129SOL     OW  513   0.833   1.602   3.105
  129SOL    HW1  514   0.770   1.531   3.088
  129SOL    HW2  515   0.827   1.618   3.198
  129SOL     MW  516   0.825   1.595   3.114
  130SOL     OW  517   4.309   5.868   4.767
  130SOL    HW1  518   4.404   5.868   4.785
  130SOL    HW2  519   4.300   5.913   4.685
  130SOL     MW  520   4.320   5.873   4.760
  131SOL     OW  521   2.680   5.981   1.662
  131SOL    HW1  522   2.713   6.065   1.628
  131SOL    HW2  523   2.617   5.953   1.597
  131SOL     MW  524   2.676   5.988   1.650
  132SOL     OW  525   1.989   0.254   2.849
  132SOL    HW1  526   1.959   0.169   2.815
  132SOL    HW2  527   1.938   0.318   2.801
  132SOL     MW  528   1.980   0.251   2.839
  133SOL     OW  529   1.683   2.118   1.366
  133SOL    HW1  530   1.636   2.049   1.319
  133SOL    HW2  531   1.643   2.118   1.453
  133SOL     MW  532   1.673   2.110   1.371
  134SOL     OW  533   4.344   2.311   0.453
  134SOL    HW1  534   4.434   2.347   0.452
  134SOL    HW2  535   4.303   2.349   0.377
  134SOL     MW  536   4.350   2.320   0.444
  135SOL     OW  537   4.661   0.416   3.315
  135SOL    HW1  538   4.672   0.512   3.308
  135SOL    HW2  539   4.691   0.395   3.402
  135SOL     MW  540   4.666   0.426   3.324
  136SOL     OW  541   3.916   2.195   0.755
  136SOL    HW1  542   3.996   2.163   0.799
  136SOL    HW2  543   3.947   2.227   0.671
  136SOL     MW  544   3.930   2.195   0.750
  137SOL     OW  545   4.435   4.805   5.489
  137SOL    HW1  546   4.401   4.823   5.577
  137SOL    HW2  547   4.358   4.782   5.439
  137SOL     MW  548   4.422   4.805   5.494
  138SOL     OW  549   1.842   1.231   4.015
  138SOL    HW1  550   1.934   1.204   4.004
  138SOL    HW2  551   1.832   1.242   4.109
  138SOL     MW  552   1.852   1.229   4.025
  139SOL     OW  553   0.480   5.385   1.543
  139SOL    HW1  554   0.507   5.465   1.588
  139SOL    HW2  555   0.390   5.400   1.519
  139SOL     MW  556   0.473   5.396   1.546
  140SOL     OW  557   0.138   5.560   1.754
  140SOL    HW1  558   0.192   5.486   1.785
  140SOL    HW2  559   0.200   5.631   1.744
  140SOL     MW  560   0.152   5.559   1.757
  141SOL     OW  561   1.809   2.139   4.795
  141SOL    HW1  562   1.799   2.124   4.700
  141SOL    HW2  563   1.719   2.147   4.826
  141SOL     MW  564   1.797   2.138   4.787
  142SOL     OW  565   3.925   4.118   0.750
  142SOL    HW1  566   3.928   4.024   0.771
  142SOL    HW2  567   3.977   4.126   0.671
  142SOL     MW  568   3.932   4.107   0.743
  143SOL     OW  569   3.342   3.015   4.621
  143SOL    HW1  570   3.276   2.965   4.669
  143SOL    HW2  571   3.317   3.006   4.530
  143SOL     MW  572   3.331   3.008   4.616
  144SOL     OW  573   1.150   5.162   3.856
  144SOL    HW1  574   1.121   5.090   3.800
  144SOL    HW2  575   1.101   5.149   3.937
  144SOL     MW  576   1.140   5.152   3.859
  145SOL     OW  577   6.108   0.920   5.323
  145SOL    HW1  578   6.016   0.936   5.299
  145SOL    HW2  579   6.106   0.908   5.417
  145SOL     MW  580   6.097   0.921   5.331
  146SOL     OW  581   2.797   1.479   2.018
  146SOL    HW1  582   2.850   1.409   2.058
  146SOL    HW2  583   2.733   1.433   1.965
  146SOL     MW  584   2.796   1.465   2.017
  147SOL     OW  585   1.968   5.746   3.123
  147SOL    HW1  586   1.946   5.653   3.130
  147SOL    HW2  587   1.887   5.787   3.094
  147SOL     MW  588   1.956   5.740   3.121
  148SOL     OW  589   3.654   1.511   4.542
  148SOL    HW1  590   3.567   1.502   4.582
  148SOL    HW2  591   3.640   1.495   4.450
  148SOL     MW  592   3.642   1.508   4.536
  149SOL     OW  593   3.856   0.086   2.001
  149SOL    HW1  594   3.826   0.150   2.067
  149SOL    HW2  595   3.901   0.020   2.051
  149SOL     MW  596   3.857   0.086   2.015
  150SOL     OW  597   4.394   0.438   1.032
  150SOL    HW1  598   4.383   0.353   1.077
  150SOL    HW2  599   4.323   0.440   0.968
  150SOL     MW  600   4.384   0.428   1.030
  151SOL     OW  601   4.605   2.643   3.195
  151SOL    HW1  602   4.637   2.664   3.283
  151SOL    HW2  603   4.546   2.570   3.207
  151SOL     MW  604   4.602   2.637   3.207
  152SOL     OW  605   3.840   2.282   2.345
  152SOL    HW1  606   3.816   2.291   2.438
  152SOL    HW2  607   3.758   2.288   2.299
  152SOL     MW  608   3.827   2.284   2.351
  153SOL     OW  609   2.556   5.280   5.330
  153SOL    HW1  610   2.500   5.206   5.305
  153SOL    HW2  611   2.577   5.263   5.421
  153SOL     MW  612   2.552   5.269   5.337
  154SOL     OW  613   4.337   4.239   2.626
  154SOL    HW1  614   4.429   4.267   2.636
  154SOL    HW2  615   4.337   4.184   2.549
  154SOL     MW  616   4.349   4.236   2.618
  155SOL     OW  617   0.160   4.888   0.596
  155SOL    HW1  618   0.130   4.952   0.531
  155SOL    HW2  619   0.108   4.908   0.673
  155SOL     MW  620   0.150   4.898   0.597
  156SOL     OW  621   3.257   1.782   2.387
  156SOL    HW1  622   3.337   1.816   2.429
  156SOL    HW2  623   3.269   1.800   2.295
  156SOL     MW  624   3.268   1.788   2.381
  157SOL     OW  625   5.778   4.522   2.085
  157SOL    HW1  626   5.749   4.497   1.997
  157SOL    HW2  627   5.699   4.551   2.129
  157SOL     MW  628   5.765   4.523   2.079
  158SOL     OW  629   1.138   2.755   0.644
  158SOL    HW1  630   1.207   2.692   0.666
  158SOL    HW2  631   1.152   2.827   0.704
  158SOL     MW  632   1.148   2.756   0.654
  159SOL     OW  633   2.596   5.635   5.978
  159SOL    HW1  634   2.575   5.719   5.937
  159SOL    HW2  635   2.586   5.651   6.071
  159SOL     MW  636   2.592   5.647   5.984
  160SOL     OW  637   1.528   5.170   5.489
  160SOL    HW1  638   1.599   5.112   5.459
  160SOL    HW2  639   1.515   5.146   5.580
  160SOL     MW  640   1.535   5.160   5.496
  161SOL     OW  641   1.632   4.962   0.692
  161SOL    HW1  642   1.647   4.869   0.674
  161SOL    HW2  643   1.707   5.006   0.653
  161SOL     MW  644   1.643   4.956   0.685
  162SOL     OW  645   1.431   0.108   2.370
  162SOL    HW1  646   1.366   0.084   2.303
  162SOL    HW2  647   1.390   0.082   2.452
  162SOL     MW  648   1.418   0.102   2.372
  163SOL     OW  649   1.271   4.121   2.228
  163SOL    HW1  650   1.358   4.161   2.229
  163SOL    HW2  651   1.229   4.155   2.150
  163SOL     MW  652   1.276   4.130   2.219
  164SOL     OW  653   4.837   4.603   4.655
  164SOL    HW1  654   4.866   4.611   4.563
  164SOL    HW2  655   4.880   4.524   4.686
  164SOL     MW  656   4.845   4.594   4.647
  165SOL     OW  657   5.257   2.240   5.940
  165SOL    HW1  658   5.306   2.258   6.021
  165SOL    HW2  659   5.312   2.180   5.892
  165SOL     MW  660   5.269   2.235   5.944
  166SOL     OW  661   1.684   0.795   1.052
  166SOL    HW1  662   1.680   0.727   0.984
  166SOL    HW2  663   1.627   0.863   1.020
  166SOL     MW  664   1.677   0.794   1.040
  167SOL     OW  665   3.262   5.756   0.589
  167SOL    HW1  666   3.283   5.662   0.594
  167SOL    HW2  667   3.259   5.775   0.496
  167SOL     MW  668   3.264   5.747   0.578
  168SOL     OW  669   4.741   5.903   1.509
  168SOL    HW1  670   4.763   5.809   1.509
  168SOL    HW2  671   4.747   5.928   1.418
  168SOL     MW  672   4.744   5.894   1.498
  169SOL     OW  673   1.898   0.348   5.828
  169SOL    HW1  674   1.853   0.299   5.759
  169SOL    HW2  675   1.989   0.329   5.815
  169SOL     MW  676   1.903   0.340   5.818
  170SOL     OW  677   1.492   2.366   1.612
  170SOL    HW1  678   1.506   2.445   1.665
  170SOL    HW2  679   1.450   2.398   1.533
  170SOL     MW  680   1.488   2.379   1.609
  171SOL     OW  681   4.693   4.478   1.955
  171SOL    HW1  682   4.701   4.566   1.917
  171SOL    HW2  683   4.688   4.493   2.048
  171SOL     MW  684   4.693   4.490   1.961
  172SOL     OW  685   2.798   1.114   4.653
  172SOL    HW1  686   2.736   1.140   4.722
  172SOL    HW2  687   2.774   1.025   4.632
  172SOL     MW  688   2.788   1.107   4.659
  173SOL     OW  689   3.573   0.097   0.583
  173SOL    HW1  690   3.657   0.144   0.582
  173SOL    HW2  691   3.584   0.029   0.647
  173SOL     MW  692   3.584   0.095   0.590
  174SOL     OW  693   2.161   3.988   2.060
  174SOL    HW1  694   2.160   3.909   2.004
  174SOL    HW2  695   2.116   3.961   2.139
  174SOL     MW  696   2.156   3.975   2.062
  175SOL     OW  697   0.994   1.846   4.916
  175SOL    HW1  698   0.964   1.936   4.929
  175SOL    HW2  699   1.044   1.849   4.835
  175SOL     MW  700   0.996   1.857   4.908
  176SOL     OW  701   4.051   4.565   5.254
  176SOL    HW1  702   3.999   4.578   5.334
  176SOL    HW2  703   4.140   4.584   5.280
  176SOL     MW  704   4.055   4.569   5.267
  177SOL     OW  705   4.147   4.125   0.119
  177SOL    HW1  706   4.118   4.158   0.204
  177SOL    HW2  707   4.167   4.034   0.135
  177SOL     MW  708   4.146   4.118   0.131
  178SOL     OW  709   5.763   5.356   5.318
  178SOL    HW1  710   5.677   5.346   5.360
  178SOL    HW2  711   5.744   5.358   5.225
  178SOL     MW  712   5.750   5.355   5.312
  179SOL     OW  713   0.579   3.871   5.943
  179SOL    HW1  714   0.561   3.817   5.865
  179SOL    HW2  715   0.497   3.869   5.991
  179SOL     MW  716   0.567   3.864   5.939
  180SOL     OW  717   4.976   2.429   5.643
  180SOL    HW1  718   4.910   2.388   5.586
  180SOL    HW2  719   5.048   2.449   5.585
  180SOL     MW  720   4.976   2.426   5.630
  181SOL     OW  721   2.995   1.749   1.411
  181SOL    HW1  722   2.991   1.672   1.353
  181SOL    HW2  723   3.003   1.713   1.498
  181SOL     MW  724   2.996   1.736   1.414
  182SOL     OW  725   1.709   3.210   2.215
  182SOL    HW1  726   1.788   3.223   2.269
  182SOL    HW2  727   1.737   3.231   2.127
  182SOL     MW  728   1.722   3.214   2.212
  183SOL     OW  729   4.303   2.947   3.228
  183SOL    HW1  730   4.399   2.946   3.232
  183SOL    HW2  731   4.280   3.034   3.258
  183SOL     MW  732   4.312   2.957   3.232
  184SOL     OW  733   1.981   0.387   0.412
  184SOL    HW1  734   2.070   0.400   0.379
  184SOL    HW2  735   1.983   0.419   0.501
  184SOL     MW  736   1.992   0.392   0.418
  185SOL     OW  737   0.437   2.930   2.058
  185SOL    HW1  738   0.510   2.879   2.021
  185SOL    HW2  739   0.399   2.873   2.123
  185SOL     MW  740   0.441   2.917   2.061
  186SOL     OW  741   2.464   0.033   2.249
  186SOL    HW1  742   2.484  -0.018   2.328
  186SOL    HW2  743   2.372   0.017   2.233
  186SOL     MW  744   2.456   0.025   2.257
  187SOL     OW  745   1.595   4.113   4.576
  187SOL    HW1  746   1.685   4.079   4.573
  187SOL    HW2  747   1.596   4.177   4.645
  187SOL     MW  748   1.606   4.116   4.584
  188SOL     OW  749   1.477   4.971   4.144
  188SOL    HW1  750   1.389   4.937   4.124
  188SOL    HW2  751   1.471   5.000   4.234
  188SOL     MW  752   1.466   4.970   4.153
  189SOL     OW  753   1.879   0.603   1.921
  189SOL    HW1  754   1.789   0.631   1.904
  189SOL    HW2  755   1.917   0.594   1.835
  189SOL     MW  756   1.873   0.605   1.909
  190SOL     OW  757   2.814   4.722   4.311
  190SOL    HW1  758   2.891   4.666   4.296
  190SOL    HW2  759   2.788   4.702   4.400
  190SOL     MW  760   2.820   4.713   4.320
  191SOL     OW  761   1.249   3.705   1.561
  191SOL    HW1  762   1.245   3.721   1.466
  191SOL    HW2  763   1.319   3.641   1.571
  191SOL     MW  764   1.257   3.699   1.550
  192SOL     OW  765   4.616   2.085   4.495
  192SOL    HW1  766   4.625   2.038   4.412
  192SOL    HW2  767   4.587   2.018   4.557
  192SOL     MW  768   4.614   2.071   4.493
  193SOL     OW  769   1.993   3.899   3.612
  193SOL    HW1  770   2.079   3.934   3.639
  193SOL    HW2  771   1.938   3.976   3.604
  193SOL     MW  772   1.997   3.912   3.615
  194SOL     OW  773   0.503   5.626   5.399
  194SOL    HW1  774   0.429   5.599   5.344
  194SOL    HW2  775   0.496   5.571   5.476
  194SOL     MW  776   0.493   5.616   5.402
  195SOL     OW  777   0.040   3.570   0.095
  195SOL    HW1  778   0.064   3.581   0.187
  195SOL    HW2  779   0.044   3.659   0.060
  195SOL     MW  780   0.043   3.582   0.102
  196SOL     OW  781   0.315   4.508   1.317
  196SOL    HW1  782   0.306   4.597   1.354
  196SOL    HW2  783   0.326   4.523   1.224
  196SOL     MW  784   0.316   4.521   1.310
  197SOL     OW  785   5.402   1.278   3.415
  197SOL    HW1  786   5.432   1.355   3.366
  197SOL    HW2  787   5.373   1.217   3.348
  197SOL     MW  788   5.403   1.280   3.401
  198SOL     OW  789   0.067   1.507   4.188
  198SOL    HW1  790   0.010   1.469   4.121
  198SOL    HW2  791   0.073   1.439   4.254
  198SOL     MW  792   0.061   1.494   4.188
  199SOL     OW  793   4.768   5.994   4.876
  199SOL    HW1  794   4.718   5.937   4.935
  199SOL    HW2  795   4.739   5.967   4.789
  199SOL     MW  796   4.758   5.984   4.873
  200SOL     OW  797   1.395   2.016   0.567
  200SOL    HW1  798   1.393   2.111   0.586
  200SOL    HW2  799   1.419   2.011   0.475
  200SOL     MW  800   1.398   2.027   0.558
  201SOL     OW  801   5.907   4.615   1.738
  201SOL    HW1  802   5.875   4.622   1.647
  201SOL    HW2  803   5.853   4.675   1.787
  201SOL     MW  804   5.897   4.623   1.733
  202SOL     OW  805   2.346   0.063   3.392
  202SOL    HW1  806   2.429   0.020   3.368
  202SOL    HW2  807   2.352   0.149   3.353
  202SOL     MW  808   2.357   0.068   3.385
  203SOL     OW  809   3.818   5.087   0.586
  203SOL    HW1  810   3.810   5.182   0.575
  203SOL    HW2  811   3.856   5.077   0.673
  203SOL     MW  812   3.821   5.098   0.595
  204SOL     OW  813   2.194   1.937   3.386
  204SOL    HW1  814   2.279   1.902   3.416
  204SOL    HW2  815   2.181   1.899   3.300
  204SOL     MW  816   2.203   1.928   3.380
  205SOL     OW  817   0.402   2.483   3.155
  205SOL    HW1  818   0.481   2.518   3.196
  205SOL    HW2  819   0.426   2.469   3.064
  205SOL     MW  820   0.414   2.485   3.149
  206SOL     OW  821   2.802   3.009   5.101
  206SOL    HW1  822   2.818   3.103   5.115
  206SOL    HW2  823   2.811   2.998   5.007
  206SOL     MW  824   2.805   3.019   5.091
  207SOL     OW  825   4.261   4.829   3.527
  207SOL    HW1  826   4.339   4.860   3.575
  207SOL    HW2  827   4.287   4.834   3.436
  207SOL     MW  828   4.274   4.833   3.522
  208SOL     OW  829   3.316   0.787   5.887
  208SOL    HW1  830   3.313   0.787   5.983
  208SOL    HW2  831   3.245   0.729   5.862
  208SOL     MW  832   3.307   0.780   5.896
  209SOL     OW  833   2.456   2.086   3.089
  209SOL    HW1  834   2.407   2.163   3.058
  209SOL    HW2  835   2.509   2.060   3.015
  209SOL     MW  836   2.456   2.092   3.077
  210SOL     OW  837   4.648   4.864   1.477
  210SOL    HW1  838   4.586   4.790   1.481
  210SOL    HW2  839   4.722   4.834   1.528
  210SOL     MW  840   4.649   4.851   1.483
  211SOL     OW  841   2.665   4.662   0.114
  211SOL    HW1  842   2.753   4.702   0.116
  211SOL    HW2  843   2.668   4.602   0.040
  211SOL     MW  844   2.676   4.659   0.106
  212SOL     OW  845   2.201   4.551   3.292
  212SOL    HW1  846   2.242   4.464   3.306
  212SOL    HW2  847   2.188   4.555   3.198
  212SOL     MW  848   2.205   4.541   3.282
  213SOL     OW  849   4.133   4.996   3.858
  213SOL    HW1  850   4.083   4.928   3.905
  213SOL    HW2  851   4.223   4.978   3.880
  213SOL     MW  852   4.138   4.986   3.866
  214SOL     OW  853   5.869   3.395   2.090
  214SOL    HW1  854   5.813   3.416   2.165
  214SOL    HW2  855   5.876   3.477   2.043
  214SOL     MW  856   5.863   3.408   2.094
  215SOL     OW  857   3.093   3.410   3.215
  215SOL    HW1  858   3.051   3.368   3.291
  215SOL    HW2  859   3.091   3.503   3.235
  215SOL     MW  860   3.088   3.416   3.227
  216SOL     OW  861   4.638   2.491   5.283
  216SOL    HW1  862   4.640   2.468   5.377
  216SOL    HW2  863   4.707   2.555   5.273
  216SOL     MW  864   4.646   2.495   5.294
  217SOL     OW  865   1.548   1.389   2.741
  217SOL    HW1  866   1.631   1.438   2.748
  217SOL    HW2  867   1.486   1.441   2.790
  217SOL     MW  868   1.550   1.401   2.747
  218SOL     OW  869   3.266   2.794   1.456
  218SOL    HW1  870   3.316   2.722   1.416
  218SOL    HW2  871   3.314   2.872   1.433
  218SOL     MW  872   3.278   2.794   1.448
  219SOL     OW  873   0.207   0.897   1.981
  219SOL    HW1  874   0.220   0.824   2.041
  219SOL    HW2  875   0.183   0.856   1.899
  219SOL     MW  876   0.206   0.884   1.978
  220SOL     OW  877   2.824   2.606   1.921
  220SOL    HW1  878   2.761   2.644   1.860
  220SOL    HW2  879   2.775   2.594   2.001
  220SOL     MW  880   2.811   2.609   1.923
  221SOL     OW  881   0.656   0.047   0.950
  221SOL    HW1  882   0.718   0.113   0.916
  221SOL    HW2  883   0.587   0.098   0.990
  221SOL     MW  884   0.656   0.061   0.950
  222SOL     OW  885   1.639   0.678   1.386
  222SOL    HW1  886   1.727   0.677   1.347
  222SOL    HW2  887   1.654   0.696   1.477
  222SOL     MW  888   1.651   0.680   1.392
  223SOL     OW  889   4.075   3.172   3.017
  223SOL    HW1  890   3.979   3.176   3.018
  223SOL    HW2  891   4.095   3.084   2.987
  223SOL     MW  892   4.066   3.162   3.013
  224SOL     OW  893   1.133   5.662   0.781
  224SOL    HW1  894   1.115   5.643   0.688
  224SOL    HW2  895   1.198   5.597   0.805
  224SOL     MW  896   1.138   5.652   0.773
  225SOL     OW  897   3.442   5.897   5.133
  225SOL    HW1  898   3.469   5.812   5.097
  225SOL    HW2  899   3.423   5.879   5.224
  225SOL     MW  900   3.443   5.884   5.139
  226SOL     OW  901   0.429   1.029   3.296
  226SOL    HW1  902   0.515   0.991   3.315
  226SOL    HW2  903   0.371   0.987   3.359
  226SOL     MW  904   0.433   1.019   3.306
  227SOL     OW  905   4.340   0.673   0.004
  227SOL    HW1  906   4.395   0.680   0.083
  227SOL    HW2  907   4.251   0.669   0.038
  227SOL     MW  908   4.336   0.673   0.018
  228SOL     OW  909   0.220   5.973   0.863
  228SOL    HW1  910   0.154   6.029   0.821
  228SOL    HW2  911   0.223   6.004   0.952
  228SOL     MW  912   0.212   5.984   0.868
  229SOL     OW  913   3.364   2.294   3.480
  229SOL    HW1  914   3.394   2.376   3.439
  229SOL    HW2  915   3.366   2.312   3.573
  229SOL     MW  916   3.368   2.306   3.486
  230SOL     OW  917   4.476   0.973   0.294
  230SOL    HW1  918   4.523   0.953   0.212
  230SOL    HW2  919   4.420   0.897   0.307
  230SOL     MW  920   4.475   0.961   0.285
  231SOL     OW  921   5.488   2.671   1.433
  231SOL    HW1  922   5.439   2.596   1.401
  231SOL    HW2  923   5.490   2.731   1.360
  231SOL     MW  924   5.483   2.669   1.421
  232SOL     OW  925   0.852   3.251   3.298
  232SOL    HW1  926   0.920   3.306   3.339
  232SOL    HW2  927   0.892   3.219   3.219
  232SOL     MW  928   0.865   3.254   3.294
  233SOL     OW  929   5.503   3.150   2.341
  233SOL    HW1  930   5.588   3.131   2.300
  233SOL    HW2  931   5.522   3.150   2.434
  233SOL     MW  932   5.516   3.148   2.347
  234SOL     OW  933   4.075   3.912   2.288
  234SOL    HW1  934   4.123   3.987   2.251
  234SOL    HW2  935   3.984   3.938   2.285
  234SOL     MW  936   4.070   3.925   2.283
  235SOL     OW  937   3.771   4.249   1.072
  235SOL    HW1  938   3.738   4.329   1.031
  235SOL    HW2  939   3.758   4.263   1.165
  235SOL     MW  940   3.765   4.260   1.078
  236SOL     OW  941   5.226   0.462   1.692
  236SOL    HW1  942   5.275   0.394   1.740
  236SOL    HW2  943   5.256   0.454   1.602
  236SOL     MW  944   5.236   0.453   1.687
  237SOL     OW  945   0.346   1.150   0.595
  237SOL    HW1  946   0.431   1.121   0.561
  237SOL    HW2  947   0.364   1.235   0.633
  237SOL     MW  948   0.358   1.157   0.595
  238SOL     OW  949   3.195   2.922   3.466
  238SOL    HW1  950   3.107   2.889   3.487
  238SOL    HW2  951   3.253   2.877   3.526
  238SOL     MW  952   3.191   2.913   3.476
  239SOL     OW  953   5.795   3.113   2.554
  239SOL    HW1  954   5.786   3.167   2.475
  239SOL    HW2  955   5.718   3.133   2.605
  239SOL     MW  956   5.785   3.122   2.550
  240SOL     OW  957   4.998   5.427   0.790
  240SOL    HW1  958   4.958   5.433   0.702
  240SOL    HW2  959   5.020   5.335   0.799
  240SOL     MW  960   4.996   5.416   0.780
  241SOL     OW  961   5.754   0.981   1.564
  241SOL    HW1  962   5.691   0.916   1.596
  241SOL    HW2  963   5.728   0.996   1.474
  241SOL     MW  964   5.743   0.975   1.557
  242SOL     OW  965   1.353   1.794   5.401
  242SOL    HW1  966   1.280   1.841   5.361
  242SOL    HW2  967   1.395   1.750   5.329
  242SOL     MW  968   1.349   1.794   5.388
  243SOL     OW  969   3.594   0.909   4.003
  243SOL    HW1  970   3.543   0.981   3.966
  243SOL    HW2  971   3.620   0.941   4.089
  243SOL     MW  972   3.591   0.922   4.009
  244SOL     OW  973   3.582   4.198   3.568
  244SOL    HW1  974   3.508   4.146   3.601
  244SOL    HW2  975   3.570   4.199   3.474
  244SOL     MW  976   3.572   4.192   3.561
  245SOL     OW  977   4.110   3.620   0.435
  245SOL    HW1  978   4.142   3.529   0.430
  245SOL    HW2  979   4.015   3.611   0.436
  245SOL     MW  980   4.102   3.607   0.435
  246SOL     OW  981   0.658   0.995   3.090
  246SOL    HW1  982   0.691   1.084   3.105
  246SOL    HW2  983   0.737   0.941   3.086
  246SOL     MW  984   0.672   0.999   3.091
  247SOL     OW  985   3.377   5.193   2.809
  247SOL    HW1  986   3.438   5.263   2.785
  247SOL    HW2  987   3.325   5.230   2.880
  247SOL     MW  988   3.378   5.206   2.814
  248SOL     OW  989   0.991   3.041   5.109
  248SOL    HW1  990   1.005   3.108   5.041
  248SOL    HW2  991   1.026   3.081   5.188
  248SOL     MW  992   0.997   3.054   5.110
  249SOL     OW  993   3.385   4.695   0.296
  249SOL    HW1  994   3.397   4.632   0.368
  249SOL    HW2  995   3.301   4.736   0.313
  249SOL     MW  996   3.377   4.692   0.307
  250SOL     OW  997   5.363   0.961   5.612
  250SOL    HW1  998   5.440   0.972   5.669
  250SOL    HW2  999   5.386   1.008   5.533
  250SOL     MW 1000   5.376   0.968   5.610
  251SOL     OW 1001   5.349   1.146   5.381
  251SOL    HW1 1002   5.396   1.135   5.465
  251SOL    HW2 1003   5.369   1.068   5.332
  251SOL     MW 1004   5.357   1.136   5.386
  252SOL     OW 1005   5.411   4.072   4.636
  252SOL    HW1 1006   5.317   4.053   4.648
  252SOL    HW2 1007   5.433   4.130   4.707
  252SOL     MW 1008   5.402   4.076   4.646
  253SOL     OW 1009   5.195   1.827   4.866
  253SOL    HW1 1010   5.194   1.920   4.888
  253SOL    HW2 1011   5.177   1.824   4.773
  253SOL     MW 1012   5.193   1.838   4.858
  254SOL     OW 1013   5.442   0.992   4.758
  254SOL    HW1 1014   5.466   1.060   4.695
  254SOL    HW2 1015   5.440   1.037   4.841
  254SOL     MW 1016   5.445   1.005   4.760
  255SOL     OW 1017   4.313   2.289   2.064
  255SOL    HW1 1018   4.224   2.270   2.034
  255SOL    HW2 1019   4.337   2.211   2.114
  255SOL     MW 1020   4.305   2.277   2.067
  256SOL     OW 1021   0.264   3.575   4.322
  256SOL    HW1 1022   0.284   3.667   4.342
  256SOL    HW2 1023   0.199   3.580   4.252
  256SOL     MW 1024   0.259   3.587   4.316
  257SOL     OW 1025   0.477   1.008   0.046
  257SOL    HW1 1026   0.498   1.090   0.001
  257SOL    HW2 1027   0.482   1.030   0.138
  257SOL     MW 1028   0.480   1.021   0.051
  258SOL     OW 1029   4.693   0.177   2.117
  258SOL    HW1 1030   4.706   0.214   2.205
  258SOL    HW2 1031   4.659   0.090   2.133
  258SOL     MW 1032   4.691   0.171   2.129
  259SOL     OW 1033   1.148   0.904   0.097
  259SOL    HW1 1034   1.082   0.845   0.135
  259SOL    HW2 1035   1.123   0.909   0.005
  259SOL     MW 1036   1.137   0.897   0.091
  260SOL     OW 1037   4.320   4.120   0.440
  260SOL    HW1 1038   4.283   4.031   0.435
  260SOL    HW2 1039   4.279   4.158   0.517
  260SOL     MW 1040   4.311   4.114   0.448
  261SOL     OW 1041   3.127   2.227   1.645
  261SOL    HW1 1042   3.178   2.221   1.727
  261SOL    HW2 1043   3.192   2.234   1.577
  261SOL     MW 1044   3.141   2.227   1.647
  262SOL     OW 1045   4.262   4.309   5.912
  262SOL    HW1 1046   4.273   4.399   5.945
  262SOL    HW2 1047   4.185   4.277   5.957
  262SOL     MW 1048   4.254   4.316   5.921
  263SOL     OW 1049   1.678   2.865   2.506
  263SOL    HW1 1050   1.645   2.954   2.493
  263SOL    HW2 1051   1.753   2.876   2.564
  263SOL     MW 1052   1.683   2.877   2.511
  264SOL     OW 1053   3.798   1.242   3.080
  264SOL    HW1 1054   3.876   1.296   3.063
  264SOL    HW2 1055   3.762   1.277   3.160
  264SOL     MW 1056   3.804   1.253   3.088
  265SOL     OW 1057   3.036   3.954   2.775
  265SOL    HW1 1058   3.113   3.992   2.733
  265SOL    HW2 1059   3.023   4.007   2.853
  265SOL     MW 1060   3.044   3.965   2.779
  266SOL     OW 1061   0.634   5.601   6.103
  266SOL    HW1 1062   0.647   5.636   6.014
  266SOL    HW2 1063   0.569   5.533   6.092
  266SOL     MW 1064   0.628   5.597   6.091
  267SOL     OW 1065   4.367   2.175   4.356
  267SOL    HW1 1066   4.379   2.204   4.447
  267SOL    HW2 1067   4.431   2.225   4.307
  267SOL     MW 1068   4.376   2.184   4.362
  268SOL     OW 1069   2.978   0.120   0.348
  268SOL    HW1 1070   2.908   0.075   0.396
  268SOL    HW2 1071   2.933   0.161   0.274
  268SOL     MW 1072   2.964   0.120   0.345
  269SOL     OW 1073   2.698   2.663   5.806
  269SOL    HW1 1074   2.608   2.669   5.772
  269SOL    HW2 1075   2.688   2.634   5.895
  269SOL     MW 1076   2.686   2.660   5.812
  270SOL     OW 1077   2.907   5.829   1.261
  270SOL    HW1 1078   2.919   5.787   1.347
  270SOL    HW2 1079   2.971   5.898   1.259
  270SOL     MW 1080   2.916   5.832   1.271
  271SOL     OW 1081   0.927   4.284   4.981
  271SOL    HW1 1082   0.889   4.326   5.059
  271SOL    HW2 1083   1.003   4.337   4.960
  271SOL     MW 1084   0.932   4.295   4.988
  272SOL     OW 1085   2.064   5.988   0.468
  272SOL    HW1 1086   2.070   6.078   0.436
  272SOL    HW2 1087   2.051   5.996   0.561
  272SOL     MW 1088   2.063   6.000   0.475
  273SOL     OW 1089   2.667   2.213   5.837
  273SOL    HW1 1090   2.632   2.174   5.756
  273SOL    HW2 1091   2.665   2.142   5.900
  273SOL     MW 1092   2.663   2.200   5.834
  274SOL     OW 1093   1.878   3.809   0.146
  274SOL    HW1 1094   1.903   3.735   0.090
  274SOL    HW2 1095   1.799   3.780   0.190
  274SOL     MW 1096   1.872   3.797   0.144
  275SOL     OW 1097   5.209   0.891   4.422
  275SOL    HW1 1098   5.268   0.957   4.459
  275SOL    HW2 1099   5.190   0.923   4.334
  275SOL     MW 1100   5.214   0.903   4.416
  276SOL     OW 1101   5.125   3.090   2.984
  276SOL    HW1 1102   5.217   3.116   2.995
  276SOL    HW2 1103   5.096   3.140   2.909
  276SOL     MW 1104   5.133   3.099   2.977
  277SOL     OW 1105   1.628   1.375   3.089
  277SOL    HW1 1106   1.716   1.414   3.088
  277SOL    HW2 1107   1.608   1.361   2.997
  277SOL     MW 1108   1.636   1.378   3.078
  278SOL     OW 1109   5.174   1.938   0.040
  278SOL    HW1 1110   5.202   1.930  -0.051
  278SOL    HW2 1111   5.254   1.927   0.090
  278SOL     MW 1112   5.187   1.936   0.035
  279SOL     OW 1113   1.958   5.252   4.198
  279SOL    HW1 1114   1.923   5.271   4.286
  279SOL    HW2 1115   2.010   5.174   4.211
  279SOL     MW 1116   1.960   5.245   4.210
  280SOL     OW 1117   2.141   0.414   1.634
  280SOL    HW1 1118   2.151   0.447   1.545
  280SOL    HW2 1119   2.114   0.490   1.685
  280SOL     MW 1120   2.139   0.427   1.629
  281SOL     OW 1121   0.259   3.900   4.210
  281SOL    HW1 1122   0.223   3.849   4.283
  281SOL    HW2 1123   0.207   3.874   4.136
  281SOL     MW 1124   0.249   3.891   4.210
  282SOL     OW 1125   5.759   4.699   1.334
  282SOL    HW1 1126   5.795   4.612   1.357
  282SOL    HW2 1127   5.803   4.722   1.254
  282SOL     MW 1128   5.768   4.691   1.327
  283SOL     OW 1129   1.321   2.077   2.125
  283SOL    HW1 1130   1.227   2.067   2.109
  283SOL    HW2 1131   1.354   1.988   2.126
  283SOL     MW 1132   1.314   2.065   2.123
  284SOL     OW 1133   4.224   5.117   2.620
  284SOL    HW1 1134   4.214   5.038   2.565
  284SOL    HW2 1135   4.222   5.083   2.709
  284SOL     MW 1136   4.223   5.103   2.624
  285SOL     OW 1137   5.376   3.509   5.452
  285SOL    HW1 1138   5.308   3.456   5.410
  285SOL    HW2 1139   5.418   3.450   5.513
  285SOL     MW 1140   5.373   3.496   5.454
  286SOL     OW 1141   1.671   5.205   0.466
  286SOL    HW1 1142   1.745   5.248   0.511
  286SOL    HW2 1143   1.701   5.194   0.377
  286SOL     MW 1144   1.684   5.209   0.461
  287SOL     OW 1145   3.948   3.069   5.845
  287SOL    HW1 1146   3.944   3.029   5.933
  287SOL    HW2 1147   3.930   2.998   5.786
  287SOL     MW 1148   3.945   3.056   5.849
  288SOL     OW 1149   6.088   2.635   1.453
  288SOL    HW1 1150   6.017   2.656   1.391
  288SOL    HW2 1151   6.167   2.657   1.405
  288SOL     MW 1152   6.089   2.640   1.440
  289SOL     OW 1153   5.126   1.016   1.036
  289SOL    HW1 1154   5.148   0.941   1.091
  289SOL    HW2 1155   5.074   1.072   1.092
  289SOL     MW 1156   5.123   1.014   1.049
  290SOL     OW 1157   5.754   1.542   5.442
  290SOL    HW1 1158   5.731   1.550   5.349
  290SOL    HW2 1159   5.835   1.494   5.442
  290SOL     MW 1160   5.761   1.537   5.431
  291SOL     OW 1161   5.012   3.755   3.071
  291SOL    HW1 1162   5.016   3.660   3.053
  291SOL    HW2 1163   5.103   3.782   3.071
  291SOL     MW 1164   5.023   3.746   3.069
  292SOL     OW 1165   1.472   4.878   3.288
  292SOL    HW1 1166   1.531   4.951   3.307
  292SOL    HW2 1167   1.430   4.859   3.371
  292SOL     MW 1168   1.474   4.885   3.300
  293SOL     OW 1169   0.721   1.585   4.695
  293SOL    HW1 1170   0.646   1.633   4.731
  293SOL    HW2 1171   0.792   1.648   4.695
  293SOL     MW 1172   0.721   1.598   4.699
  294SOL     OW 1173   0.308   4.088   1.041
  294SOL    HW1 1174   0.389   4.037   1.037
  294SOL    HW2 1175   0.275   4.075   1.128
  294SOL     MW 1176   0.314   4.081   1.051
  295SOL     OW 1177   0.593   0.904   4.301
  295SOL    HW1 1178   0.607   0.816   4.265
  295SOL    HW2 1179   0.558   0.889   4.388
  295SOL     MW 1180   0.590   0.892   4.307
  296SOL     OW 1181   5.286   1.089   1.589
  296SOL    HW1 1182   5.322   1.118   1.674
  296SOL    HW2 1183   5.349   1.120   1.526
  296SOL     MW 1184   5.298   1.096   1.592
  297SOL     OW 1185   2.753   2.905   3.076
  297SOL    HW1 1186   2.806   2.906   2.995
  297SOL    HW2 1187   2.728   2.995   3.089
  297SOL     MW 1188   2.756   2.916   3.067
  298SOL     OW 1189   2.241   5.433   3.695
  298SOL    HW1 1190   2.268   5.519   3.660
  298SOL    HW2 1191   2.183   5.398   3.628
  298SOL     MW 1192   2.237   5.440   3.683
  299SOL     OW 1193   3.988   1.463   3.896
  299SOL    HW1 1194   4.079   1.482   3.920
  299SOL    HW2 1195   3.991   1.377   3.856
  299SOL     MW 1196   3.999   1.455   3.894
  300SOL     OW 1197   0.615   2.916   0.321
  300SOL    HW1 1198   0.522   2.892   0.309
  300SOL    HW2 1199   0.647   2.930   0.233
  300SOL     MW 1200   0.607   2.915   0.309
  301SOL     OW 1201   5.134   3.373   2.250
  301SOL    HW1 1202   5.080   3.338   2.179
  301SOL    HW2 1203   5.079   3.369   2.327
  301SOL     MW 1204   5.121   3.368   2.250
  302SOL     OW 1205   5.812   3.992   1.545
  302SOL    HW1 1206   5.867   3.920   1.511
  302SOL    HW2 1207   5.755   3.949   1.608
  302SOL     MW 1208   5.812   3.978   1.549
  303SOL     OW 1209   2.300   3.000   1.720
  303SOL    HW1 1210   2.225   2.954   1.682
  303SOL    HW2 1211   2.340   2.936   1.778
  303SOL     MW 1212   2.296   2.987   1.722
  304SOL     OW 1213   4.115   5.298   3.731
  304SOL    HW1 1214   4.022   5.322   3.726
  304SOL    HW2 1215   4.144   5.296   3.641
  304SOL     MW 1216   4.107   5.301   3.720
  305SOL     OW 1217   3.129   3.854   0.479
  305SOL    HW1 1218   3.221   3.875   0.462
  305SOL    HW2 1219   3.084   3.936   0.468
  305SOL     MW 1220   3.135   3.866   0.475
  306SOL     OW 1221   2.378   6.116   1.001
  306SOL    HW1 1222   2.283   6.105   1.006
  306SOL    HW2 1223   2.403   6.068   0.923
  306SOL     MW 1224   2.370   6.109   0.992
  307SOL     OW 1225   0.063   0.437   3.427
  307SOL    HW1 1226   0.123   0.377   3.383
  307SOL    HW2 1227   0.090   0.435   3.518
  307SOL     MW 1228   0.074   0.430   3.433
  308SOL     OW 1229   1.429   3.897   0.293
  308SOL    HW1 1230   1.358   3.909   0.230
  308SOL    HW2 1231   1.425   3.975   0.348
  308SOL     MW 1232   1.420   3.908   0.292
  309SOL     OW 1233   1.681   5.603   0.285
  309SOL    HW1 1234   1.720   5.639   0.366
  309SOL    HW2 1235   1.594   5.576   0.312
  309SOL     MW 1236   1.675   5.604   0.298
  310SOL     OW 1237   5.598   2.928   4.698
  310SOL    HW1 1238   5.514   2.940   4.652
  310SOL    HW2 1239   5.575   2.935   4.790
  310SOL     MW 1240   5.585   2.930   4.703
  311SOL     OW 1241   3.715   1.498   2.602
  311SOL    HW1 1242   3.742   1.500   2.509
  311SOL    HW2 1243   3.773   1.435   2.642
  311SOL     MW 1244   3.725   1.491   2.595
  312SOL     OW 1245   4.378   2.648   3.703
  312SOL    HW1 1246   4.431   2.568   3.710
  312SOL    HW2 1247   4.400   2.698   3.780
  312SOL     MW 1248   4.387   2.644   3.713
  313SOL     OW 1249  -0.028   0.325   4.743
  313SOL    HW1 1250   0.028   0.274   4.802
  313SOL    HW2 1251   0.028   0.395   4.712
  313SOL     MW 1252  -0.015   0.327   4.746
  314SOL     OW 1253   1.311   4.464   5.570
  314SOL    HW1 1254   1.382   4.464   5.635
  314SOL    HW2 1255   1.355   4.454   5.487
  314SOL     MW 1256   1.324   4.463   5.569
  315SOL     OW 1257   0.342   5.105   1.980
  315SOL    HW1 1258   0.409   5.175   1.981
  315SOL    HW2 1259   0.315   5.098   2.071
  315SOL     MW 1260   0.347   5.113   1.991
  316SOL     OW 1261   2.263   0.858   1.046
  316SOL    HW1 1262   2.169   0.854   1.024
  316SOL    HW2 1263   2.306   0.869   0.963
  316SOL     MW 1264   2.256   0.858   1.034
  317SOL     OW 1265   4.941   5.899   4.744
  317SOL    HW1 1266   5.018   5.868   4.695
  317SOL    HW2 1267   4.978   5.943   4.820
  317SOL     MW 1268   4.955   5.901   4.747
  318SOL     OW 1269   5.379   3.792   3.296
  318SOL    HW1 1270   5.337   3.825   3.376
  318SOL    HW2 1271   5.452   3.850   3.283
  318SOL     MW 1272   5.382   3.803   3.304
  319SOL     OW 1273   0.922   1.739   0.775
  319SOL    HW1 1274   0.971   1.805   0.824
  319SOL    HW2 1275   0.869   1.790   0.714
  319SOL     MW 1276   0.922   1.753   0.774
  320SOL     OW 1277   4.138   1.640   5.831
  320SOL    HW1 1278   4.065   1.579   5.845
  320SOL    HW2 1279   4.114   1.718   5.881
  320SOL     MW 1280   4.126   1.642   5.838
  321SOL     OW 1281  -0.008   3.052   3.890
  321SOL    HW1 1282  -0.008   3.087   3.800
  321SOL    HW2 1283   0.069   3.090   3.930
  321SOL     MW 1284   0.001   3.061   3.884
  322SOL     OW 1285   3.013   4.071   2.370
  322SOL    HW1 1286   2.939   4.086   2.310
  322SOL    HW2 1287   2.993   4.125   2.445
  322SOL     MW 1288   3.002   4.079   2.372
  323SOL     OW 1289   1.063   1.952   4.022
  323SOL    HW1 1290   1.031   1.988   3.939
  323SOL    HW2 1291   0.995   1.974   4.084
  323SOL     MW 1292   1.051   1.959   4.019
  324SOL     OW 1293   2.055   5.113   1.104
  324SOL    HW1 1294   2.080   5.188   1.159
  324SOL    HW2 1295   2.126   5.107   1.041
  324SOL     MW 1296   2.067   5.122   1.103
  325SOL     OW 1297   0.050   6.097   2.788
  325SOL    HW1 1298   0.133   6.110   2.834
  325SOL    HW2 1299  -0.009   6.064   2.855
  325SOL     MW 1300   0.053   6.094   2.802
  326SOL     OW 1301   5.433   1.780   2.338
  326SOL    HW1 1302   5.339   1.769   2.318
  326SOL    HW2 1303   5.476   1.714   2.286
  326SOL     MW 1304   5.426   1.771   2.330
  327SOL     OW 1305   3.593   5.100   3.316
  327SOL    HW1 1306   3.627   5.066   3.232
  327SOL    HW2 1307   3.658   5.075   3.379
  327SOL     MW 1308   3.605   5.093   3.313
  328SOL     OW 1309   2.402   2.154   4.376
  328SOL    HW1 1310   2.439   2.199   4.300
  328SOL    HW2 1311   2.428   2.208   4.450
  328SOL     MW 1312   2.410   2.166   4.375
  329SOL     OW 1313   2.350   2.420   3.464
  329SOL    HW1 1314   2.271   2.475   3.456
  329SOL    HW2 1315   2.420   2.482   3.479
  329SOL     MW 1316   2.349   2.434   3.465
  330SOL     OW 1317   3.756   4.167   5.828
  330SOL    HW1 1318   3.834   4.197   5.780
  330SOL    HW2 1319   3.780   4.080   5.859
  330SOL     MW 1320   3.768   4.160   5.826
  331SOL     OW 1321   1.258   4.643   2.127
  331SOL    HW1 1322   1.335   4.590   2.149
  331SOL    HW2 1323   1.277   4.677   2.041
  331SOL     MW 1324   1.269   4.640   2.119
  332SOL     OW 1325   2.324   5.028   1.636
  332SOL    HW1 1326   2.274   4.991   1.710
  332SOL    HW2 1327   2.317   5.122   1.648
  332SOL     MW 1328   2.317   5.035   1.647
  333SOL     OW 1329   0.246   5.685   0.958
  333SOL    HW1 1330   0.227   5.607   1.011
  333SOL    HW2 1331   0.201   5.669   0.876
  333SOL     MW 1332   0.238   5.674   0.954
  334SOL     OW 1333   3.946   4.303   6.034
  334SOL    HW1 1334   3.881   4.374   6.023
  334SOL    HW2 1335   3.966   4.305   6.127
  334SOL     MW 1336   3.940   4.312   6.044
  335SOL     OW 1337   0.619  -0.002   0.294
  335SOL    HW1 1338   0.538   0.048   0.307
  335SOL    HW2 1339   0.674   0.023   0.367
  335SOL     MW 1340   0.616   0.007   0.304
  336SOL     OW 1341   2.110   2.780   5.913
  336SOL    HW1 1342   2.138   2.713   5.975
  336SOL    HW2 1343   2.159   2.858   5.938
  336SOL     MW 1344   2.119   2.781   5.923
  337SOL     OW 1345   4.389   0.556   2.924
  337SOL    HW1 1346   4.304   0.517   2.950
  337SOL    HW2 1347   4.418   0.602   3.002
  337SOL     MW 1348   4.382   0.556   2.936
  338SOL     OW 1349   1.876   2.598   4.148
  338SOL    HW1 1350   1.797   2.585   4.095
  338SOL    HW2 1351   1.859   2.550   4.228
  338SOL     MW 1352   1.864   2.591   4.151
  339SOL     OW 1353   0.524   1.524   4.366
  339SOL    HW1 1354   0.605   1.569   4.392
  339SOL    HW2 1355   0.526   1.525   4.271
  339SOL     MW 1356   0.534   1.530   4.358
  340SOL     OW 1357   5.798   0.659   4.294
  340SOL    HW1 1358   5.741   0.731   4.267
  340SOL    HW2 1359   5.801   0.665   4.389
  340SOL     MW 1360   5.792   0.668   4.302
  341SOL     OW 1361   4.253   5.633   1.613
  341SOL    HW1 1362   4.279   5.572   1.543
  341SOL    HW2 1363   4.334   5.659   1.654
  341SOL     MW 1364   4.266   5.629   1.609
  342SOL     OW 1365   3.871   0.130   5.916
  342SOL    HW1 1366   3.853   0.043   5.879
  342SOL    HW2 1367   3.913   0.111   6.000
  342SOL     MW 1368   3.874   0.117   5.921
  343SOL     OW 1369   2.012   3.277   1.761
  343SOL    HW1 1370   1.940   3.216   1.782
  343SOL    HW2 1371   2.010   3.339   1.833
  343SOL     MW 1372   2.003   3.277   1.772
  344SOL     OW 1373   5.068   1.853   2.622
  344SOL    HW1 1374   5.111   1.767   2.619
  344SOL    HW2 1375   5.020   1.858   2.541
  344SOL     MW 1376   5.067   1.843   2.612
  345SOL     OW 1377   5.954   1.831   3.061
  345SOL    HW1 1378   5.906   1.753   3.090
  345SOL    HW2 1379   5.896   1.872   2.998
  345SOL     MW 1380   5.941   1.827   3.057
  346SOL     OW 1381   2.316   6.050   4.649
  346SOL    HW1 1382   2.233   6.035   4.696
  346SOL    HW2 1383   2.290   6.057   4.558
  346SOL     MW 1384   2.302   6.049   4.644
  347SOL     OW 1385   1.013   5.040   1.264
  347SOL    HW1 1386   1.021   5.075   1.175
  347SOL    HW2 1387   1.096   4.996   1.279
  347SOL     MW 1388   1.024   5.039   1.255
  348SOL     OW 1389   1.014   2.434   4.269
  348SOL    HW1 1390   1.101   2.435   4.226
  348SOL    HW2 1391   1.031   2.462   4.358
  348SOL     MW 1392   1.027   2.438   4.274
  349SOL     OW 1393   3.897   2.167   0.064
  349SOL    HW1 1394   3.823   2.229   0.059
  349SOL    HW2 1395   3.900   2.142   0.156
  349SOL     MW 1396   3.888   2.172   0.074
  350SOL     OW 1397   2.642   4.773   0.639
  350SOL    HW1 1398   2.700   4.792   0.714
  350SOL    HW2 1399   2.665   4.840   0.576
  350SOL     MW 1400   2.652   4.784   0.641
  351SOL     OW 1401   1.135   3.022   4.019
  351SOL    HW1 1402   1.054   3.066   3.990
  351SOL    HW2 1403   1.120   3.003   4.111
  351SOL     MW 1404   1.123   3.025   4.026
  352SOL     OW 1405   4.165   6.025   5.835
  352SOL    HW1 1406   4.234   5.963   5.810
  352SOL    HW2 1407   4.105   5.974   5.887
  352SOL     MW 1408   4.166   6.012   5.838
  353SOL     OW 1409   2.788   1.219   3.164
  353SOL    HW1 1410   2.836   1.170   3.097
  353SOL    HW2 1411   2.699   1.222   3.131
  353SOL     MW 1412   2.783   1.213   3.151
  354SOL     OW 1413   2.730   5.303   4.780
  354SOL    HW1 1414   2.674   5.379   4.797
  354SOL    HW2 1415   2.722   5.289   4.686
  354SOL     MW 1416   2.723   5.310   4.771
  355SOL     OW 1417   3.387   3.314   5.230
  355SOL    HW1 1418   3.293   3.307   5.208
  355SOL    HW2 1419   3.416   3.224   5.239
  355SOL     MW 1420   3.379   3.302   5.228
  356SOL     OW 1421   0.714   6.007   5.710
  356SOL    HW1 1422   0.644   6.023   5.774
  356SOL    HW2 1423   0.780   6.071   5.731
  356SOL     MW 1424   0.713   6.017   5.721
  357SOL     OW 1425   4.429   5.366   1.024
  357SOL    HW1 1426   4.403   5.457   1.042
  357SOL    HW2 1427   4.443   5.364   0.930
  357SOL     MW 1428   4.427   5.377   1.015
  358SOL     OW 1429   4.302   4.407   5.533
  358SOL    HW1 1430   4.218   4.381   5.492
  358SOL    HW2 1431   4.286   4.397   5.626
  358SOL     MW 1432   4.290   4.402   5.539
  359SOL     OW 1433   3.158   1.627   2.752
  359SOL    HW1 1434   3.155   1.562   2.681
  359SOL    HW2 1435   3.243   1.668   2.743
  359SOL     MW 1436   3.168   1.624   2.742
  360SOL     OW 1437   4.007   2.891   0.712
  360SOL    HW1 1438   3.934   2.828   0.719
  360SOL    HW2 1439   4.014   2.928   0.799
  360SOL     MW 1440   3.999   2.887   0.723
  361SOL     OW 1441   0.388   5.953   2.272
  361SOL    HW1 1442   0.402   5.872   2.221
  361SOL    HW2 1443   0.294   5.961   2.278
  361SOL     MW 1444   0.379   5.944   2.266
  362SOL     OW 1445   2.515   0.986   0.772
  362SOL    HW1 1446   2.493   0.897   0.801
  362SOL    HW2 1447   2.499   0.985   0.679
  362SOL     MW 1448   2.511   0.975   0.765
  363SOL     OW 1449   3.561   0.589   5.233
  363SOL    HW1 1450   3.500   0.617   5.164
  363SOL    HW2 1451   3.505   0.555   5.302
  363SOL     MW 1452   3.547   0.588   5.233
  364SOL     OW 1453   0.851   2.010   3.133
  364SOL    HW1 1454   0.934   2.008   3.084
  364SOL    HW2 1455   0.877   2.006   3.224
  364SOL     MW 1456   0.864   2.009   3.138
  365SOL     OW 1457   3.273   0.593   4.018
  365SOL    HW1 1458   3.263   0.581   3.923
  365SOL    HW2 1459   3.187   0.618   4.048
  365SOL     MW 1460   3.262   0.594   4.010
  366SOL     OW 1461   3.666   5.460   5.346
  366SOL    HW1 1462   3.750   5.438   5.386
  366SOL    HW2 1463   3.681   5.451   5.253
  366SOL     MW 1464   3.678   5.456   5.340
  367SOL     OW 1465   3.719   5.036   2.136
  367SOL    HW1 1466   3.636   5.009   2.178
  367SOL    HW2 1467   3.692   5.066   2.050
  367SOL     MW 1468   3.705   5.036   2.131
  368SOL     OW 1469   4.328   5.267   4.081
  368SOL    HW1 1470   4.299   5.349   4.039
  368SOL    HW2 1471   4.274   5.260   4.159
  368SOL     MW 1472   4.318   5.276   4.085
  369SOL     OW 1473   4.471   3.958   0.695
  369SOL    HW1 1474   4.381   3.945   0.664
  369SOL    HW2 1475   4.463   3.961   0.790
  369SOL     MW 1476   4.459   3.957   0.703
  370SOL     OW 1477   5.794   4.301   0.826
  370SOL    HW1 1478   5.886   4.318   0.846
  370SOL    HW2 1479   5.748   4.317   0.908
  370SOL     MW 1480   5.800   4.305   0.838
  371SOL     OW 1481   3.961   3.238   0.319
  371SOL    HW1 1482   4.018   3.160   0.323
  371SOL    HW2 1483   3.906   3.222   0.243
  371SOL     MW 1484   3.962   3.226   0.310
  372SOL     OW 1485   3.635   2.917   5.283
  372SOL    HW1 1486   3.684   2.835   5.280
  372SOL    HW2 1487   3.700   2.982   5.307
  372SOL     MW 1488   3.649   2.915   5.285
  373SOL     OW 1489   2.493   2.132   2.503
  373SOL    HW1 1490   2.581   2.121   2.466
  373SOL    HW2 1491   2.509   2.158   2.593
  373SOL     MW 1492   2.506   2.134   2.509
  374SOL     OW 1493  -0.017   0.646   3.770
  374SOL    HW1 1494   0.004   0.726   3.721
  374SOL    HW2 1495   0.067   0.605   3.785
  374SOL     MW 1496  -0.004   0.651   3.766
  375SOL     OW 1497   4.435   1.415   1.057
  375SOL    HW1 1498   4.518   1.431   1.103
  375SOL    HW2 1499   4.368   1.429   1.123
  375SOL     MW 1500   4.437   1.418   1.071
  376SOL     OW 1501   4.789   2.540   0.340
  376SOL    HW1 1502   4.776   2.532   0.435
  376SOL    HW2 1503   4.881   2.521   0.328
  376SOL     MW 1504   4.798   2.537   0.350
  377SOL     OW 1505   2.197   1.466   3.934
  377SOL    HW1 1506   2.278   1.420   3.958
  377SOL    HW2 1507   2.215   1.557   3.950
  377SOL     MW 1508   2.209   1.471   3.939
  378SOL     OW 1509   1.352   1.184   4.723
  378SOL    HW1 1510   1.279   1.126   4.696
  378SOL    HW2 1511   1.309   1.255   4.769
  378SOL     MW 1512   1.338   1.185   4.725
  379SOL     OW 1513   5.453   3.985   4.393
  379SOL    HW1 1514   5.496   4.054   4.444
  379SOL    HW2 1515   5.501   3.984   4.310
  379SOL     MW 1516   5.464   3.993   4.389
  380SOL     OW 1517   3.111   4.955   3.849
  380SOL    HW1 1518   3.071   4.947   3.761
  380SOL    HW2 1519   3.118   5.049   3.862
  380SOL     MW 1520   3.107   4.965   3.840
  381SOL     OW 1521   2.443   0.257   4.253
  381SOL    HW1 1522   2.475   0.321   4.189
  381SOL    HW2 1523   2.482   0.175   4.225
  381SOL     MW 1524   2.452   0.255   4.242
  382SOL     OW 1525   4.503   2.759   0.530
  382SOL    HW1 1526   4.559   2.693   0.489
  382SOL    HW2 1527   4.529   2.759   0.622
  382SOL     MW 1528   4.513   2.751   0.536
  383SOL     OW 1529   0.286   5.530   0.023
  383SOL    HW1 1530   0.214   5.467   0.012
  383SOL    HW2 1531   0.339   5.493   0.093
  383SOL     MW 1532   0.283   5.518   0.030
  384SOL     OW 1533   5.555   6.014   5.138
  384SOL    HW1 1534   5.620   6.044   5.203
  384SOL    HW2 1535   5.556   5.920   5.146
  384SOL     MW 1536   5.563   6.007   5.147
  385SOL     OW 1537   6.059   0.770   1.587
  385SOL    HW1 1538   5.983   0.817   1.550
  385SOL    HW2 1539   6.044   0.679   1.565
  385SOL     MW 1540   6.048   0.765   1.580
  386SOL     OW 1541   4.180   6.092   1.311
  386SOL    HW1 1542   4.214   6.015   1.264
  386SOL    HW2 1543   4.252   6.122   1.363
  386SOL     MW 1544   4.192   6.086   1.311
  387SOL     OW 1545   4.398   4.528   5.724
  387SOL    HW1 1546   4.462   4.558   5.789
  387SOL    HW2 1547   4.424   4.571   5.644
  387SOL     MW 1548   4.409   4.536   5.723
  388SOL     OW 1549   0.526   3.477   4.013
  388SOL    HW1 1550   0.441   3.522   4.010
  388SOL    HW2 1551   0.536   3.442   3.925
  388SOL     MW 1552   0.517   3.478   4.002
  389SOL     OW 1553   0.501   3.880   1.215
  389SOL    HW1 1554   0.418   3.861   1.261
  389SOL    HW2 1555   0.475   3.928   1.138
  389SOL     MW 1556   0.488   3.884   1.212
  390SOL     OW 1557   5.792   1.315   0.733
  390SOL    HW1 1558   5.726   1.248   0.751
  390SOL    HW2 1559   5.743   1.396   0.731
  390SOL     MW 1560   5.778   1.316   0.735
  391SOL     OW 1561   4.998   0.043   0.345
  391SOL    HW1 1562   5.026  -0.014   0.418
  391SOL    HW2 1563   4.951   0.114   0.388
  391SOL     MW 1564   4.996   0.044   0.359
  392SOL     OW 1565   2.331   0.275   1.096
  392SOL    HW1 1566   2.273   0.236   1.030
  392SOL    HW2 1567   2.399   0.210   1.108
  392SOL     MW 1568   2.332   0.263   1.089
  393SOL     OW 1569   1.527   1.435   0.071
  393SOL    HW1 1570   1.478   1.362   0.032
  393SOL    HW2 1571   1.523   1.418   0.165
  393SOL     MW 1572   1.521   1.424   0.077
  394SOL     OW 1573   2.897   6.054   3.626
  394SOL    HW1 1574   2.827   6.111   3.660
  394SOL    HW2 1575   2.871   6.037   3.536
  394SOL     MW 1576   2.885   6.059   3.619
  395SOL     OW 1577   1.345   5.360   0.568
  395SOL    HW1 1578   1.314   5.438   0.521
  395SOL    HW2 1579   1.439   5.372   0.573
  395SOL     MW 1580   1.352   5.371   0.563
  396SOL     OW 1581   2.929   2.760   1.324
  396SOL    HW1 1582   2.917   2.851   1.352
  396SOL    HW2 1583   2.998   2.765   1.259
  396SOL     MW 1584   2.936   2.772   1.319
  397SOL     OW 1585   3.486   0.676   2.130
  397SOL    HW1 1586   3.421   0.655   2.062
  397SOL    HW2 1587   3.482   0.770   2.137
  397SOL     MW 1588   3.477   0.684   2.123
  398SOL     OW 1589   2.542   3.292   5.719
  398SOL    HW1 1590   2.514   3.266   5.808
  398SOL    HW2 1591   2.494   3.233   5.662
  398SOL     MW 1592   2.533   3.282   5.723
  399SOL     OW 1593   5.164   3.628   5.485
  399SOL    HW1 1594   5.238   3.569   5.497
  399SOL    HW2 1595   5.152   3.632   5.391
  399SOL     MW 1596   5.171   3.622   5.475
  400SOL     OW 1597   0.686   2.905   5.553
  400SOL    HW1 1598   0.656   2.963   5.624
  400SOL    HW2 1599   0.682   2.960   5.475
  400SOL     MW 1600   0.682   2.919   5.552
  401SOL     OW 1601   0.168   1.586   3.835
  401SOL    HW1 1602   0.104   1.576   3.764
  401SOL    HW2 1603   0.191   1.678   3.833
  401SOL     MW 1604   0.163   1.596   3.826
  402SOL     OW 1605   4.412   3.006   0.041
  402SOL    HW1 1606   4.391   2.978   0.131
  402SOL    HW2 1607   4.505   2.989   0.033
  402SOL     MW 1608   4.421   3.000   0.051
  403SOL     OW 1609   5.297   0.779   1.983
  403SOL    HW1 1610   5.389   0.767   1.955
  403SOL    HW2 1611   5.304   0.789   2.077
  403SOL     MW 1612   5.309   0.778   1.991
  404SOL     OW 1613   0.380   3.902   2.001
  404SOL    HW1 1614   0.439   3.830   1.975
  404SOL    HW2 1615   0.349   3.877   2.087
  404SOL     MW 1616   0.384   3.891   2.008
  405SOL     OW 1617   2.737   1.294   2.936
  405SOL    HW1 1618   2.811   1.307   2.997
  405SOL    HW2 1619   2.660   1.309   2.989
  405SOL     MW 1620   2.737   1.298   2.949
  406SOL     OW 1621   5.714   4.667   0.107
  406SOL    HW1 1622   5.685   4.635   0.193
  406SOL    HW2 1623   5.808   4.651   0.107
  406SOL     MW 1624   5.722   4.661   0.117
  407SOL     OW 1625   4.895   2.537   3.632
  407SOL    HW1 1626   4.841   2.572   3.704
  407SOL    HW2 1627   4.862   2.449   3.620
  407SOL     MW 1628   4.884   2.531   3.639
  408SOL     OW 1629   0.445   4.802   0.454
  408SOL    HW1 1630   0.403   4.888   0.459
  408SOL    HW2 1631   0.434   4.765   0.541
  408SOL     MW 1632   0.439   4.808   0.465
  409SOL     OW 1633   2.928   3.962   5.774
  409SOL    HW1 1634   2.868   3.921   5.837
  409SOL    HW2 1635   2.930   4.053   5.799
  409SOL     MW 1636   2.921   3.968   5.785
  410SOL     OW 1637   4.210   3.979   2.631
  410SOL    HW1 1638   4.304   3.986   2.646
  410SOL    HW2 1639   4.202   3.973   2.536
  410SOL     MW 1640   4.220   3.979   2.621
  411SOL     OW 1641   0.864   3.693   1.998
  411SOL    HW1 1642   0.942   3.701   1.942
  411SOL    HW2 1643   0.885   3.745   2.075
  411SOL     MW 1644   0.876   3.700   2.000
  412SOL     OW 1645   3.827   3.860   4.657
  412SOL    HW1 1646   3.778   3.788   4.698
  412SOL    HW2 1647   3.769   3.890   4.587
  412SOL     MW 1648   3.814   3.855   4.654
  413SOL     OW 1649   0.323   2.748   3.839
  413SOL    HW1 1650   0.387   2.802   3.886
  413SOL    HW2 1651   0.239   2.775   3.873
  413SOL     MW 1652   0.321   2.757   3.849
  414SOL     OW 1653   3.383   2.810   5.194
  414SOL    HW1 1654   3.343   2.766   5.118
  414SOL    HW2 1655   3.310   2.857   5.234
  414SOL     MW 1656   3.369   2.810   5.189
  415SOL     OW 1657   0.099   3.314   1.845
  415SOL    HW1 1658   0.042   3.370   1.899
  415SOL    HW2 1659   0.082   3.343   1.756
  415SOL     MW 1660   0.090   3.324   1.841
  416SOL     OW 1661   5.646   2.528   3.036
  416SOL    HW1 1662   5.590   2.572   2.971
  416SOL    HW2 1663   5.584   2.487   3.096
  416SOL     MW 1664   5.632   2.529   3.035
  417SOL     OW 1665   4.784   2.399   3.257
  417SOL    HW1 1666   4.738   2.323   3.221
  417SOL    HW2 1667   4.776   2.388   3.351
  417SOL     MW 1668   4.777   2.388   3.264
  418SOL     OW 1669   4.601   4.137   4.099
  418SOL    HW1 1670   4.532   4.073   4.080
  418SOL    HW2 1671   4.659   4.092   4.159
  418SOL     MW 1672   4.600   4.124   4.104
  419SOL     OW 1673   5.390   4.005   5.225
  419SOL    HW1 1674   5.314   3.955   5.258
  419SOL    HW2 1675   5.352   4.082   5.185
  419SOL     MW 1676   5.376   4.008   5.224
  420SOL     OW 1677   2.037   0.663   0.050
  420SOL    HW1 1678   1.994   0.599  -0.008
  420SOL    HW2 1679   2.128   0.663   0.020
  420SOL     MW 1680   2.043   0.655   0.039
  421SOL     OW 1681   1.943   3.787   1.828
  421SOL    HW1 1682   1.858   3.833   1.834
  421SOL    HW2 1683   1.984   3.825   1.750
  421SOL     MW 1684   1.938   3.797   1.819
  422SOL     OW 1685   1.170   3.562   4.522
  422SOL    HW1 1686   1.193   3.653   4.499
  422SOL    HW2 1687   1.134   3.526   4.442
  422SOL     MW 1688   1.168   3.569   4.510
  423SOL     OW 1689   4.697   5.308   4.050
  423SOL    HW1 1690   4.757   5.323   3.976
  423SOL    HW2 1691   4.657   5.393   4.065
  423SOL     MW 1692   4.700   5.320   4.043
  424SOL     OW 1693   0.163   1.863   5.793
  424SOL    HW1 1694   0.179   1.878   5.887
  424SOL    HW2 1695   0.084   1.810   5.791
  424SOL     MW 1696   0.156   1.859   5.804
  425SOL     OW 1697   3.259   5.709   0.272
  425SOL    HW1 1698   3.175   5.733   0.314
  425SOL    HW2 1699   3.244   5.728   0.180
  425SOL     MW 1700   3.247   5.715   0.266
  426SOL     OW 1701   0.300   1.405   2.503
  426SOL    HW1 1702   0.315   1.486   2.552
  426SOL    HW2 1703   0.293   1.433   2.413
  426SOL     MW 1704   0.301   1.418   2.499
  427SOL     OW 1705   4.050   0.277   4.111
  427SOL    HW1 1706   3.981   0.325   4.158
  427SOL    HW2 1707   4.013   0.259   4.026
  427SOL     MW 1708   4.038   0.281   4.107
  428SOL     OW 1709   3.160   1.475   2.106
  428SOL    HW1 1710   3.187   1.539   2.172
  428SOL    HW2 1711   3.068   1.462   2.123
  428SOL     MW 1712   3.152   1.482   2.116
  429SOL     OW 1713   3.312   1.792   1.190
  429SOL    HW1 1714   3.237   1.833   1.235
  429SOL    HW2 1715   3.278   1.769   1.105
  429SOL     MW 1716   3.298   1.794   1.186
  430SOL     OW 1717   2.226   1.784   5.384
  430SOL    HW1 1718   2.269   1.836   5.452
  430SOL    HW2 1719   2.134   1.808   5.390
  430SOL     MW 1720   2.220   1.793   5.393
  431SOL     OW 1721   4.717   5.736   3.000
  431SOL    HW1 1722   4.671   5.656   2.973
  431SOL    HW2 1723   4.674   5.763   3.079
  431SOL     MW 1724   4.707   5.730   3.006
  432SOL     OW 1725   3.210   4.665   2.133
  432SOL    HW1 1726   3.243   4.693   2.219
  432SOL    HW2 1727   3.179   4.576   2.149
  432SOL     MW 1728   3.210   4.658   2.146
  433SOL     OW 1729   0.459   5.354   1.817
  433SOL    HW1 1730   0.437   5.379   1.908
  433SOL    HW2 1731   0.510   5.275   1.826
  433SOL     MW 1732   0.462   5.348   1.830
  434SOL     OW 1733   1.725   5.725   4.560
  434SOL    HW1 1734   1.805   5.777   4.573
  434SOL    HW2 1735   1.673   5.778   4.501
  434SOL     MW 1736   1.729   5.738   4.554
  435SOL     OW 1737   2.814   0.186   0.995
  435SOL    HW1 1738   2.785   0.103   1.035
  435SOL    HW2 1739   2.803   0.173   0.902
  435SOL     MW 1740   2.809   0.174   0.989
  436SOL     OW 1741   5.579   5.110   2.384
  436SOL    HW1 1742   5.583   5.015   2.371
  436SOL    HW2 1743   5.569   5.145   2.297
  436SOL     MW 1744   5.578   5.102   2.372
  437SOL     OW 1745   0.449   1.164   0.236
  437SOL    HW1 1746   0.510   1.111   0.288
  437SOL    HW2 1747   0.400   1.213   0.300
  437SOL     MW 1748   0.450   1.163   0.250
  438SOL     OW 1749   2.182   3.565   3.651
  438SOL    HW1 1750   2.223   3.490   3.608
  438SOL    HW2 1751   2.197   3.549   3.744
  438SOL     MW 1752   2.188   3.554   3.657
  439SOL     OW 1753   1.421   1.826   0.860
  439SOL    HW1 1754   1.377   1.862   0.938
  439SOL    HW2 1755   1.475   1.756   0.894
  439SOL     MW 1756   1.422   1.822   0.874
  440SOL     OW 1757   0.117   4.158   3.002
  440SOL    HW1 1758   0.035   4.188   3.041
  440SOL    HW2 1759   0.106   4.172   2.909
  440SOL     MW 1760   0.106   4.163   2.996
  441SOL     OW 1761   3.373   3.893   2.012
  441SOL    HW1 1762   3.320   3.822   1.973
  441SOL    HW2 1763   3.366   3.878   2.106
  441SOL     MW 1764   3.366   3.882   2.018
  442SOL     OW 1765   1.211   3.527   3.445
  442SOL    HW1 1766   1.215   3.479   3.362
  442SOL    HW2 1767   1.185   3.615   3.420
  442SOL     MW 1768   1.209   3.532   3.432
  443SOL     OW 1769   0.855   3.732   0.380
  443SOL    HW1 1770   0.930   3.673   0.386
  443SOL    HW2 1771   0.783   3.676   0.355
  443SOL     MW 1772   0.855   3.718   0.378
  444SOL     OW 1773   3.052   3.559   1.336
  444SOL    HW1 1774   2.978   3.619   1.351
  444SOL    HW2 1775   3.106   3.569   1.413
  444SOL     MW 1776   3.049   3.567   1.347
  445SOL     OW 1777   4.477   0.760   2.049
  445SOL    HW1 1778   4.513   0.847   2.026
  445SOL    HW2 1779   4.403   0.780   2.105
  445SOL     MW 1780   4.473   0.773   2.053
  446SOL     OW 1781   1.958   5.469   2.954
  446SOL    HW1 1782   1.996   5.547   2.912
  446SOL    HW2 1783   1.979   5.479   3.046
  446SOL     MW 1784   1.965   5.480   2.960
  447SOL     OW 1785   1.086   4.080   4.484
  447SOL    HW1 1786   1.007   4.054   4.436
  447SOL    HW2 1787   1.064   4.065   4.575
  447SOL     MW 1788   1.074   4.075   4.489
  448SOL     OW 1789   5.042   2.295   1.774
  448SOL    HW1 1790   5.067   2.247   1.853
  448SOL    HW2 1791   5.104   2.265   1.708
  448SOL     MW 1792   5.052   2.285   1.776
  449SOL     OW 1793   0.440   5.355   5.676
  449SOL    HW1 1794   0.513   5.296   5.654
  449SOL    HW2 1795   0.426   5.341   5.769
  449SOL     MW 1796   0.447   5.346   5.684
  450SOL     OW 1797   3.554   1.437   3.740
  450SOL    HW1 1798   3.471   1.429   3.788
  450SOL    HW2 1799   3.529   1.424   3.649
  450SOL     MW 1800   3.541   1.434   3.735
  451SOL     OW 1801   1.096   1.408   3.132
  451SOL    HW1 1802   1.189   1.411   3.106
  451SOL    HW2 1803   1.051   1.444   3.057
  451SOL     MW 1804   1.102   1.412   3.120
  452SOL     OW 1805   4.906   2.793   0.708
  452SOL    HW1 1806   4.825   2.825   0.667
  452SOL    HW2 1807   4.888   2.797   0.801
  452SOL     MW 1808   4.894   2.798   0.714
  453SOL     OW 1809   2.021   2.857   0.817
  453SOL    HW1 1810   1.966   2.857   0.738
  453SOL    HW2 1811   1.961   2.872   0.888
  453SOL     MW 1812   2.007   2.858   0.815
  454SOL     OW 1813   2.038   0.980   3.331
  454SOL    HW1 1814   1.978   1.020   3.394
  454SOL    HW2 1815   2.123   0.983   3.374
  454SOL     MW 1816   2.041   0.985   3.344
  455SOL     OW 1817   1.718   1.205   1.474
  455SOL    HW1 1818   1.799   1.167   1.439
  455SOL    HW2 1819   1.702   1.155   1.554
  455SOL     MW 1820   1.726   1.194   1.480
  456SOL     OW 1821   5.699   1.688   4.026
  456SOL    HW1 1822   5.670   1.649   4.110
  456SOL    HW2 1823   5.634   1.658   3.964
  456SOL     MW 1824   5.688   1.680   4.029
  457SOL     OW 1825   3.087   4.412   2.606
  457SOL    HW1 1826   3.031   4.463   2.666
  457SOL    HW2 1827   3.031   4.393   2.532
  457SOL     MW 1828   3.074   4.416   2.605
  458SOL     OW 1829   3.803   4.964   2.915
  458SOL    HW1 1830   3.887   4.935   2.953
  458SOL    HW2 1831   3.817   4.956   2.821
  458SOL     MW 1832   3.815   4.959   2.908
  459SOL     OW 1833   1.944   5.981   3.096
  459SOL    HW1 1834   2.035   5.955   3.079
  459SOL    HW2 1835   1.951   6.042   3.168
  459SOL     MW 1836   1.956   5.985   3.102
  460SOL     OW 1837   1.320   1.167   5.862
  460SOL    HW1 1838   1.339   1.261   5.864
  460SOL    HW2 1839   1.366   1.133   5.938
  460SOL     MW 1840   1.328   1.174   5.871
  461SOL     OW 1841   1.192   2.146   2.742
  461SOL    HW1 1842   1.198   2.210   2.813
  461SOL    HW2 1843   1.200   2.197   2.662
  461SOL     MW 1844   1.194   2.160   2.741
  462SOL     OW 1845   2.339   1.620   2.094
  462SOL    HW1 1846   2.331   1.624   1.998
  462SOL    HW2 1847   2.320   1.709   2.123
  462SOL     MW 1848   2.336   1.631   2.086
  463SOL     OW 1849   5.013   2.268   0.597
  463SOL    HW1 1850   4.959   2.202   0.553
  463SOL    HW2 1851   4.976   2.351   0.569
  463SOL     MW 1852   5.002   2.270   0.589
  464SOL     OW 1853   2.539   1.052   3.064
  464SOL    HW1 1854   2.530   1.112   2.989
  464SOL    HW2 1855   2.485   1.090   3.132
  464SOL     MW 1856   2.532   1.063   3.063
  465SOL     OW 1857   2.616   1.001   1.721
  465SOL    HW1 1858   2.535   0.950   1.725
  465SOL    HW2 1859   2.605   1.069   1.785
  465SOL     MW 1860   2.605   1.002   1.729
  466SOL     OW 1861   3.444   1.087   5.733
  466SOL    HW1 1862   3.507   1.015   5.723
  466SOL    HW2 1863   3.429   1.093   5.827
  466SOL     MW 1864   3.450   1.079   5.743
  467SOL     OW 1865   0.198   1.920   3.039
  467SOL    HW1 1866   0.239   1.933   3.125
  467SOL    HW2 1867   0.230   1.993   2.987
  467SOL     MW 1868   0.207   1.930   3.043
  468SOL     OW 1869   1.187   0.361   1.740
  468SOL    HW1 1870   1.218   0.442   1.699
  468SOL    HW2 1871   1.188   0.379   1.833
  468SOL     MW 1872   1.191   0.373   1.746
  469SOL     OW 1873   1.165   5.460   5.768
  469SOL    HW1 1874   1.186   5.468   5.861
  469SOL    HW2 1875   1.246   5.433   5.727
  469SOL     MW 1876   1.177   5.458   5.774
  470SOL     OW 1877   3.449   5.757   3.198
  470SOL    HW1 1878   3.505   5.683   3.224
  470SOL    HW2 1879   3.442   5.810   3.276
  470SOL     MW 1880   3.455   5.754   3.210
  471SOL     OW 1881   5.034   5.838   0.523
  471SOL    HW1 1882   4.964   5.844   0.588
  471SOL    HW2 1883   5.110   5.809   0.572
  471SOL     MW 1884   5.035   5.835   0.537
  472SOL     OW 1885   1.707   1.033   2.512
  472SOL    HW1 1886   1.687   1.012   2.421
  472SOL    HW2 1887   1.794   1.072   2.509
  472SOL     MW 1888   1.715   1.035   2.501
  473SOL     OW 1889   5.825   1.538   4.169
  473SOL    HW1 1890   5.860   1.611   4.222
  473SOL    HW2 1891   5.831   1.569   4.080
  473SOL     MW 1892   5.830   1.550   4.165
  474SOL     OW 1893   4.297   0.843   1.886
  474SOL    HW1 1894   4.283   0.907   1.816
  474SOL    HW2 1895   4.350   0.889   1.949
  474SOL     MW 1896   4.302   0.856   1.885
  475SOL     OW 1897   0.608   1.482   2.959
  475SOL    HW1 1898   0.685   1.450   2.910
  475SOL    HW2 1899   0.615   1.438   3.043
  475SOL     MW 1900   0.619   1.473   2.963
  476SOL     OW 1901   5.963   2.669   1.942
  476SOL    HW1 1902   6.049   2.679   1.901
  476SOL    HW2 1903   5.981   2.676   2.035
  476SOL     MW 1904   5.976   2.671   1.948
  477SOL     OW 1905   3.806   5.044   4.979
  477SOL    HW1 1906   3.900   5.064   4.976
  477SOL    HW2 1907   3.778   5.080   5.062
  477SOL     MW 1908   3.814   5.051   4.988
  478SOL     OW 1909   2.120   3.605   5.781
  478SOL    HW1 1910   2.046   3.668   5.783
  478SOL    HW2 1911   2.142   3.597   5.690
  478SOL     MW 1912   2.113   3.612   5.771
  479SOL     OW 1913   1.653   5.156   1.158
  479SOL    HW1 1914   1.586   5.091   1.135
  479SOL    HW2 1915   1.682   5.189   1.075
  479SOL     MW 1916   1.648   5.152   1.146
  480SOL     OW 1917   6.100   3.049   0.226
  480SOL    HW1 1918   6.029   2.997   0.186
  480SOL    HW2 1919   6.150   2.986   0.276
  480SOL     MW 1920   6.097   3.035   0.227
  481SOL     OW 1921   4.675   2.843   4.921
  481SOL    HW1 1922   4.734   2.881   4.856
  481SOL    HW2 1923   4.705   2.879   5.004
  481SOL     MW 1924   4.685   2.852   4.923
  482SOL     OW 1925   1.570   2.076   5.364
  482SOL    HW1 1926   1.631   2.135   5.409
  482SOL    HW2 1927   1.591   2.084   5.272
  482SOL     MW 1928   1.580   2.084   5.359
  483SOL     OW 1929   1.213   5.837   1.551
  483SOL    HW1 1930   1.223   5.845   1.646
  483SOL    HW2 1931   1.147   5.901   1.528
  483SOL     MW 1932   1.207   5.845   1.560
  484SOL     OW 1933   2.719   0.720   4.503
  484SOL    HW1 1934   2.705   0.814   4.491
  484SOL    HW2 1935   2.690   0.682   4.421
  484SOL     MW 1936   2.713   0.727   4.492
  485SOL     OW 1937   5.053   5.129   2.447
  485SOL    HW1 1938   5.038   5.054   2.506
  485SOL    HW2 1939   5.021   5.098   2.363
  485SOL     MW 1940   5.047   5.116   2.444
  486SOL     OW 1941   5.342   1.038   5.100
  486SOL    HW1 1942   5.355   0.945   5.081
  486SOL    HW2 1943   5.338   1.043   5.194
  486SOL     MW 1944   5.343   1.027   5.108
  487SOL     OW 1945   3.284   2.805   0.019
  487SOL    HW1 1946   3.348   2.800  -0.053
  487SOL    HW2 1947   3.275   2.897   0.037
  487SOL     MW 1948   3.291   2.815   0.013
  488SOL     OW 1949   2.862   0.288   5.100
  488SOL    HW1 1950   2.811   0.358   5.058
  488SOL    HW2 1951   2.873   0.318   5.189
  488SOL     MW 1952   2.857   0.300   5.105
  489SOL     OW 1953   4.585   2.235   1.221
  489SOL    HW1 1954   4.672   2.276   1.215
  489SOL    HW2 1955   4.529   2.291   1.169
  489SOL     MW 1956   4.589   2.246   1.214
  490SOL     OW 1957   0.683   5.057   0.444
  490SOL    HW1 1958   0.730   5.104   0.375
  490SOL    HW2 1959   0.695   5.110   0.521
  490SOL     MW 1960   0.690   5.069   0.444
  491SOL     OW 1961   2.824   0.994   0.760
  491SOL    HW1 1962   2.898   0.993   0.699
  491SOL    HW2 1963   2.864   0.985   0.846
  491SOL     MW 1964   2.838   0.992   0.763
  492SOL     OW 1965   2.134   6.034   1.228
  492SOL    HW1 1966   2.194   6.076   1.166
  492SOL    HW2 1967   2.190   5.978   1.280
  492SOL     MW 1968   2.148   6.033   1.227
  493SOL     OW 1969   3.366   2.111   4.249
  493SOL    HW1 1970   3.429   2.177   4.280
  493SOL    HW2 1971   3.412   2.066   4.179
  493SOL     MW 1972   3.379   2.114   4.244
  494SOL     OW 1973   2.430   3.480   4.838
  494SOL    HW1 1974   2.342   3.490   4.802
  494SOL    HW2 1975   2.416   3.468   4.931
  494SOL     MW 1976   2.418   3.480   4.845
  495SOL     OW 1977   4.665   3.171   3.627
  495SOL    HW1 1978   4.695   3.252   3.585
  495SOL    HW2 1979   4.744   3.124   3.648
  495SOL     MW 1980   4.678   3.176   3.625
  496SOL     OW 1981   3.777   3.009   2.702
  496SOL    HW1 1982   3.733   3.094   2.686
  496SOL    HW2 1983   3.707   2.945   2.694
  496SOL     MW 1984   3.763   3.012   2.699
  497SOL     OW 1985   3.548   5.166   5.741
  497SOL    HW1 1986   3.597   5.241   5.706
  497SOL    HW2 1987   3.478   5.153   5.678
  497SOL     MW 1988   3.546   5.174   5.729
  498SOL     OW 1989   3.716   5.462   4.306
  498SOL    HW1 1990   3.707   5.377   4.260
  498SOL    HW2 1991   3.728   5.437   4.396
  498SOL     MW 1992   3.716   5.448   4.311
  499SOL     OW 1993   5.882   5.539   2.950
  499SOL    HW1 1994   5.841   5.455   2.973
  499SOL    HW2 1995   5.872   5.591   3.029
  499SOL     MW 1996   5.876   5.535   2.962
  500SOL     OW 1997   5.393   1.757   0.504
  500SOL    HW1 1998   5.391   1.662   0.493
  500SOL    HW2 1999   5.476   1.774   0.547
  500SOL     MW 2000   5.403   1.748   0.508
  501SOL     OW 2001   2.259   0.532   1.266
  501SOL    HW1 2002   2.314   0.606   1.294
  501SOL    HW2 2003   2.280   0.521   1.174
  501SOL     MW 2004   2.269   0.540   1.258
  502SOL     OW 2005   4.136   2.225   5.097
  502SOL    HW1 2006   4.196   2.156   5.066
  502SOL    HW2 2007   4.160   2.237   5.188
  502SOL     MW 2008   4.146   2.218   5.104
  503SOL     OW 2009   2.897   3.854   0.454
  503SOL    HW1 2010   2.902   3.799   0.533
  503SOL    HW2 2011   2.808   3.842   0.423
  503SOL     MW 2012   2.887   3.846   0.460
  504SOL     OW 2013   0.269   5.786   2.245
  504SOL    HW1 2014   0.278   5.703   2.197
  504SOL    HW2 2015   0.177   5.808   2.237
  504SOL     MW 2016   0.260   5.779   2.238
  505SOL     OW 2017   0.958   1.700   3.830
  505SOL    HW1 2018   1.024   1.641   3.792
  505SOL    HW2 2019   0.967   1.689   3.923
  505SOL     MW 2020   0.967   1.692   3.836
  506SOL     OW 2021   3.393   5.052   0.395
  506SOL    HW1 2022   3.416   5.120   0.459
  506SOL    HW2 2023   3.461   4.986   0.405
  506SOL     MW 2024   3.404   5.053   0.404
  507SOL     OW 2025   5.115   4.190   4.730
  507SOL    HW1 2026   5.054   4.253   4.771
  507SOL    HW2 2027   5.106   4.207   4.637
  507SOL     MW 2028   5.107   4.200   4.724
  508SOL     OW 2029   4.811   5.996   2.873
  508SOL    HW1 2030   4.790   5.904   2.855
  508SOL    HW2 2031   4.733   6.043   2.848
  508SOL     MW 2032   4.799   5.990   2.868
  509SOL     OW 2033   5.404   4.875   4.543
  509SOL    HW1 2034   5.395   4.780   4.529
  509SOL    HW2 2035   5.318   4.909   4.522
  509SOL     MW 2036   5.393   4.867   4.539
  510SOL     OW 2037   1.099   3.789   4.931
  510SOL    HW1 2038   1.138   3.710   4.893
  510SOL    HW2 2039   1.061   3.759   5.013
  510SOL     MW 2040   1.099   3.776   4.936
  511SOL     OW 2041   2.924   3.407   2.371
  511SOL    HW1 2042   2.878   3.425   2.453
  511SOL    HW2 2043   3.008   3.450   2.381
  511SOL     MW 2044   2.928   3.414   2.382
  512SOL     OW 2045   4.352   1.869   4.593
  512SOL    HW1 2046   4.349   1.857   4.498
  512SOL    HW2 2047   4.371   1.782   4.627
  512SOL     MW 2048   4.354   1.857   4.586
  513SOL     OW 2049   3.051   5.973   4.209
  513SOL    HW1 2050   3.038   5.879   4.193
  513SOL    HW2 2051   2.991   5.994   4.279
  513SOL     MW 2052   3.042   5.964   4.215
  514SOL     OW 2053   4.824   4.607   0.619
  514SOL    HW1 2054   4.816   4.647   0.532
  514SOL    HW2 2055   4.916   4.615   0.640
  514SOL     MW 2056   4.834   4.613   0.611
  515SOL     OW 2057   1.745   3.814   1.368
  515SOL    HW1 2058   1.775   3.903   1.389
  515SOL    HW2 2059   1.691   3.825   1.291
  515SOL     MW 2060   1.742   3.826   1.361
  516SOL     OW 2061   4.373   4.247   0.310
  516SOL    HW1 2062   4.366   4.340   0.334
  516SOL    HW2 2063   4.457   4.241   0.266
  516SOL     MW 2064   4.382   4.257   0.308
  517SOL     OW 2065   2.602   3.617   3.039
  517SOL    HW1 2066   2.523   3.662   3.070
  517SOL    HW2 2067   2.629   3.563   3.113
  517SOL     MW 2068   2.596   3.616   3.051
  518SOL     OW 2069   0.743   1.586   5.462
  518SOL    HW1 2070   0.776   1.581   5.553
  518SOL    HW2 2071   0.696   1.668   5.460
  518SOL     MW 2072   0.741   1.595   5.473
  519SOL     OW 2073   5.063   3.817   2.379
  519SOL    HW1 2074   5.025   3.809   2.467
  519SOL    HW2 2075   4.991   3.849   2.326
  519SOL     MW 2076   5.050   3.820   2.384
  520SOL     OW 2077   4.855   5.124   2.650
  520SOL    HW1 2078   4.879   5.218   2.656
  520SOL    HW2 2079   4.776   5.117   2.701
  520SOL     MW 2080   4.849   5.135   2.657
  521SOL     OW 2081   3.754   5.399   1.810
  521SOL    HW1 2082   3.685   5.418   1.874
  521SOL    HW2 2083   3.743   5.466   1.743
  521SOL     MW 2084   3.744   5.410   1.810
  522SOL     OW 2085   0.018   2.714   5.195
  522SOL    HW1 2086   0.043   2.621   5.187
  522SOL    HW2 2087  -0.016   2.736   5.109
  522SOL     MW 2088   0.017   2.705   5.184
  523SOL     OW 2089   0.584   2.134   5.289
  523SOL    HW1 2090   0.666   2.116   5.334
  523SOL    HW2 2091   0.576   2.064   5.225
  523SOL     MW 2092   0.593   2.123   5.287
  524SOL     OW 2093   2.511   5.903   0.186
  524SOL    HW1 2094   2.549   5.991   0.190
  524SOL    HW2 2095   2.418   5.918   0.178
  524SOL     MW 2096   2.505   5.916   0.186
  525SOL     OW 2097   1.757   0.852   5.463
  525SOL    HW1 2098   1.794   0.821   5.379
  525SOL    HW2 2099   1.820   0.915   5.495
  525SOL     MW 2100   1.769   0.856   5.456
  526SOL     OW 2101   2.264   4.198   5.039
  526SOL    HW1 2102   2.253   4.123   4.980
  526SOL    HW2 2103   2.175   4.227   5.057
  526SOL     MW 2104   2.252   4.192   5.034
  527SOL     OW 2105   3.820   5.753   0.326
  527SOL    HW1 2106   3.846   5.838   0.290
  527SOL    HW2 2107   3.886   5.692   0.295
  527SOL     MW 2108   3.831   5.756   0.318
  528SOL     OW 2109   2.296   5.202   3.563
  528SOL    HW1 2110   2.361   5.231   3.498
  528SOL    HW2 2111   2.346   5.194   3.643
  528SOL     MW 2112   2.310   5.205   3.565
  529SOL     OW 2113   2.683   1.633   4.006
  529SOL    HW1 2114   2.609   1.597   4.056
  529SOL    HW2 2115   2.658   1.620   3.916
  529SOL     MW 2116   2.671   1.627   4.002
  530SOL     OW 2117   1.688   4.024   0.342
  530SOL    HW1 2118   1.730   3.948   0.301
  530SOL    HW2 2119   1.701   4.011   0.435
  530SOL     MW 2120   1.695   4.013   0.348
  531SOL     OW 2121   2.766   3.315   6.075
  531SOL    HW1 2122   2.718   3.356   6.003
  531SOL    HW2 2123   2.857   3.328   6.052
  531SOL     MW 2124   2.771   3.322   6.063
  532SOL     OW 2125   3.103   4.635   4.168
  532SOL    HW1 2126   3.040   4.692   4.123
  532SOL    HW2 2127   3.071   4.631   4.257
  532SOL     MW 2128   3.091   4.641   4.173
  533SOL     OW 2129   3.660   5.420   0.052
  533SOL    HW1 2130   3.744   5.457   0.081
  533SOL    HW2 2131   3.651   5.450  -0.038
  533SOL     MW 2132   3.669   5.428   0.045
  534SOL     OW 2133   4.234   3.516   4.810
  534SOL    HW1 2134   4.294   3.451   4.772
  534SOL    HW2 2135   4.249   3.510   4.903
  534SOL     MW 2136   4.243   3.507   4.816
  535SOL     OW 2137   0.979   4.476   1.487
  535SOL    HW1 2138   0.995   4.543   1.553
  535SOL    HW2 2139   1.037   4.405   1.511
  535SOL     MW 2140   0.988   4.475   1.498
  536SOL     OW 2141   5.250   2.435   0.758
  536SOL    HW1 2142   5.293   2.476   0.682
  536SOL    HW2 2143   5.207   2.508   0.802
  536SOL     MW 2144   5.250   2.449   0.754
  537SOL     OW 2145   5.070   1.781   4.428
  537SOL    HW1 2146   5.041   1.749   4.343
  537SOL    HW2 2147   5.108   1.705   4.470
  537SOL     MW 2148   5.071   1.768   4.423
  538SOL     OW 2149   5.290   4.661   1.012
  538SOL    HW1 2150   5.201   4.658   0.976
  538SOL    HW2 2151   5.278   4.649   1.106
  538SOL     MW 2152   5.278   4.659   1.019
  539SOL     OW 2153   5.351   2.919   1.385
  539SOL    HW1 2154   5.347   2.895   1.292
  539SOL    HW2 2155   5.430   2.877   1.417
  539SOL     MW 2156   5.360   2.911   1.378
  540SOL     OW 2157   1.339   3.501   4.762
  540SOL    HW1 2158   1.364   3.441   4.833
  540SOL    HW2 2159   1.385   3.581   4.781
  540SOL     MW 2160   1.348   3.503   4.773
  541SOL     OW 2161   2.731   4.780   2.756
  541SOL    HW1 2162   2.769   4.783   2.668
  541SOL    HW2 2163   2.735   4.688   2.780
  541SOL     MW 2164   2.736   4.769   2.748
  542SOL     OW 2165   5.009   3.669   4.158
  542SOL    HW1 2166   4.987   3.719   4.079
  542SOL    HW2 2167   5.078   3.610   4.129
  542SOL     MW 2168   5.015   3.668   4.145
  543SOL     OW 2169   2.448   2.062   5.143
  543SOL    HW1 2170   2.497   2.124   5.198
  543SOL    HW2 2171   2.484   2.074   5.056
  543SOL     MW 2172   2.458   2.071   5.139
  544SOL     OW 2173   3.555   0.466   5.008
  544SOL    HW1 2174   3.544   0.499   4.918
  544SOL    HW2 2175   3.527   0.375   5.003
  544SOL     MW 2176   3.551   0.459   4.996
  545SOL     OW 2177   4.909   2.919   2.646
  545SOL    HW1 2178   4.981   2.959   2.695
  545SOL    HW2 2179   4.951   2.876   2.572
  545SOL     MW 2180   4.923   2.919   2.643
  546SOL     OW 2181   2.167   4.975   0.249
  546SOL    HW1 2182   2.090   5.021   0.284
  546SOL    HW2 2183   2.201   4.927   0.323
  546SOL     MW 2184   2.162   4.975   0.262
  547SOL     OW 2185   0.826   0.908   3.741
  547SOL    HW1 2186   0.791   0.845   3.805
  547SOL    HW2 2187   0.816   0.864   3.657
  547SOL     MW 2188   0.821   0.895   3.739
  548SOL     OW 2189   0.656   4.052   1.492
  548SOL    HW1 2190   0.706   4.008   1.423
  548SOL    HW2 2191   0.623   4.131   1.449
  548SOL     MW 2192   0.658   4.056   1.478
  549SOL     OW 2193   2.383   3.983   3.310
  549SOL    HW1 2194   2.305   3.958   3.361
  549SOL    HW2 2195   2.429   4.044   3.367
  549SOL     MW 2196   2.379   3.987   3.323
  550SOL     OW 2197   1.653   0.253   3.031
  550SOL    HW1 2198   1.681   0.245   3.123
  550SOL    HW2 2199   1.654   0.347   3.015
  550SOL     MW 2200   1.656   0.264   3.040
  551SOL     OW 2201   4.408   4.536   2.994
  551SOL    HW1 2202   4.411   4.448   3.032
  551SOL    HW2 2203   4.414   4.521   2.901
  551SOL     MW 2204   4.409   4.524   2.988
  552SOL     OW 2205   6.032   0.147   0.455
  552SOL    HW1 2206   5.939   0.122   0.462
  552SOL    HW2 2207   6.066   0.137   0.543
  552SOL     MW 2208   6.025   0.142   0.466
  553SOL     OW 2209   3.696   4.887   3.738
  553SOL    HW1 2210   3.630   4.840   3.685
  553SOL    HW2 2211   3.772   4.830   3.734
  553SOL     MW 2212   3.697   4.874   3.731
  554SOL     OW 2213   3.949   4.855   5.942
  554SOL    HW1 2214   3.873   4.801   5.922
  554SOL    HW2 2215   4.012   4.794   5.978
  554SOL     MW 2216   3.947   4.841   5.944
  555SOL     OW 2217   2.023   5.885   1.864
  555SOL    HW1 2218   2.084   5.828   1.815
  555SOL    HW2 2219   2.046   5.871   1.955
  555SOL     MW 2220   2.033   5.877   1.869
  556SOL     OW 2221   2.613   4.407   2.627
  556SOL    HW1 2222   2.694   4.397   2.575
  556SOL    HW2 2223   2.601   4.322   2.668
  556SOL     MW 2224   2.622   4.396   2.625
  557SOL     OW 2225   0.837   1.614   1.149
  557SOL    HW1 2226   0.763   1.641   1.205
  557SOL    HW2 2227   0.852   1.690   1.094
  557SOL     MW 2228   0.829   1.627   1.149
  558SOL     OW 2229   5.239   5.771   0.938
  558SOL    HW1 2230   5.245   5.858   0.898
  558SOL    HW2 2231   5.234   5.788   1.031
  558SOL     MW 2232   5.239   5.783   0.944
  559SOL     OW 2233   1.858   4.403   1.802
  559SOL    HW1 2234   1.864   4.314   1.766
  559SOL    HW2 2235   1.857   4.391   1.896
  559SOL     MW 2236   1.858   4.391   1.809
  560SOL     OW 2237   1.918   6.064   4.322
  560SOL    HW1 2238   1.857   6.018   4.381
  560SOL    HW2 2239   1.968   6.120   4.380
  560SOL     MW 2240   1.917   6.065   4.336
  561SOL     OW 2241   2.628   1.288   5.922
  561SOL    HW1 2242   2.569   1.321   5.853
  561SOL    HW2 2243   2.587   1.208   5.952
  561SOL     MW 2244   2.616   1.282   5.917
  562SOL     OW 2245   5.164   2.726   2.493
  562SOL    HW1 2246   5.075   2.735   2.457
  562SOL    HW2 2247   5.170   2.635   2.519
  562SOL     MW 2248   5.154   2.717   2.492
  563SOL     OW 2249   1.629   2.362   2.802
  563SOL    HW1 2250   1.562   2.298   2.776
  563SOL    HW2 2251   1.614   2.375   2.895
  563SOL     MW 2252   1.619   2.356   2.810
  564SOL     OW 2253   0.411   2.034   1.914
  564SOL    HW1 2254   0.482   2.042   1.850
  564SOL    HW2 2255   0.336   2.009   1.863
  564SOL     MW 2256   0.411   2.032   1.900
  565SOL     OW 2257   0.249   5.882   4.873
  565SOL    HW1 2258   0.220   5.793   4.851
  565SOL    HW2 2259   0.319   5.869   4.936
  565SOL     MW 2260   0.254   5.869   4.878
  566SOL     OW 2261   2.657   5.831   0.745
  566SOL    HW1 2262   2.620   5.797   0.827
  566SOL    HW2 2263   2.670   5.754   0.691
  566SOL     MW 2264   2.654   5.818   0.749
  567SOL     OW 2265   3.063   3.446   5.588
  567SOL    HW1 2266   3.031   3.473   5.675
  567SOL    HW2 2267   3.062   3.351   5.591
  567SOL     MW 2268   3.059   3.438   5.599
  568SOL     OW 2269   2.754   3.418   3.439
  568SOL    HW1 2270   2.666   3.440   3.471
  568SOL    HW2 2271   2.738   3.358   3.367
  568SOL     MW 2272   2.741   3.413   3.435
  569SOL     OW 2273   4.812   4.027   0.648
  569SOL    HW1 2274   4.765   4.102   0.687
  569SOL    HW2 2275   4.777   4.021   0.560
  569SOL     MW 2276   4.802   4.036   0.642
  570SOL     OW 2277   2.071   5.704   3.429
  570SOL    HW1 2278   2.059   5.793   3.465
  570SOL    HW2 2279   2.039   5.647   3.498
  570SOL     MW 2280   2.065   5.708   3.442
  571SOL     OW 2281   1.033   3.939   2.017
  571SOL    HW1 2282   0.957   3.932   1.960
  571SOL    HW2 2283   1.008   4.005   2.081
  571SOL     MW 2284   1.021   3.946   2.018
  572SOL     OW 2285   4.343   4.623   1.473
  572SOL    HW1 2286   4.400   4.589   1.542
  572SOL    HW2 2287   4.257   4.587   1.493
  572SOL     MW 2288   4.340   4.615   1.484
  573SOL     OW 2289   2.611   1.973   5.890
  573SOL    HW1 2290   2.670   1.986   5.815
  573SOL    HW2 2291   2.667   1.984   5.965
  573SOL     MW 2292   2.625   1.976   5.889
  574SOL     OW 2293   1.019   4.062   1.019
  574SOL    HW1 2294   0.937   4.108   1.043
  574SOL    HW2 2295   1.010   4.046   0.926
  574SOL     MW 2296   1.008   4.065   1.011
  575SOL     OW 2297   5.741   2.000   2.320
  575SOL    HW1 2298   5.758   1.913   2.283
  575SOL    HW2 2299   5.806   2.010   2.389
  575SOL     MW 2300   5.751   1.991   2.323
  576SOL     OW 2301   4.859   5.321   2.017
  576SOL    HW1 2302   4.816   5.237   1.996
  576SOL    HW2 2303   4.875   5.360   1.932
  576SOL     MW 2304   4.856   5.315   2.004
  577SOL     OW 2305   1.493   4.822   0.437
  577SOL    HW1 2306   1.408   4.829   0.392
  577SOL    HW2 2307   1.471   4.799   0.526
  577SOL     MW 2308   1.480   4.820   0.442
  578SOL     OW 2309   3.767   4.157   0.290
  578SOL    HW1 2310   3.827   4.133   0.361
  578SOL    HW2 2311   3.763   4.252   0.294
  578SOL     MW 2312   3.774   4.165   0.299
  579SOL     OW 2313   4.546   2.338   0.110
  579SOL    HW1 2314   4.533   2.377   0.197
  579SOL    HW2 2315   4.577   2.250   0.127
  579SOL     MW 2316   4.548   2.333   0.122
  580SOL     OW 2317   3.716   3.483   3.920
  580SOL    HW1 2318   3.721   3.389   3.939
  580SOL    HW2 2319   3.691   3.487   3.828
  580SOL     MW 2320   3.713   3.472   3.911
  581SOL     OW 2321   1.119   3.988   2.638
  581SOL    HW1 2322   1.124   4.050   2.712
  581SOL    HW2 2323   1.157   3.908   2.672
  581SOL     MW 2324   1.124   3.986   2.651
  582SOL     OW 2325   1.735   2.512   3.328
  582SOL    HW1 2326   1.731   2.544   3.238
  582SOL    HW2 2327   1.747   2.590   3.380
  582SOL     MW 2328   1.736   2.525   3.324
  583SOL     OW 2329   2.296   1.843   2.579
  583SOL    HW1 2330   2.304   1.815   2.488
  583SOL    HW2 2331   2.229   1.911   2.577
  583SOL     MW 2332   2.289   1.848   2.568
  584SOL     OW 2333   5.195   3.102   5.146
  584SOL    HW1 2334   5.100   3.089   5.135
  584SOL    HW2 2335   5.233   3.019   5.118
  584SOL     MW 2336   5.188   3.090   5.141
  585SOL     OW 2337   4.342   3.876   4.004
  585SOL    HW1 2338   4.267   3.858   4.062
  585SOL    HW2 2339   4.414   3.894   4.063
  585SOL     MW 2340   4.341   3.876   4.018
  586SOL     OW 2341   2.891   5.311   2.337
  586SOL    HW1 2342   2.937   5.227   2.327
  586SOL    HW2 2343   2.834   5.297   2.412
  586SOL     MW 2344   2.890   5.299   2.345
  587SOL     OW 2345   1.464   0.194   0.714
  587SOL    HW1 2346   1.471   0.115   0.659
  587SOL    HW2 2347   1.406   0.168   0.784
  587SOL     MW 2348   1.458   0.181   0.716
  588SOL     OW 2349   1.258   2.198   5.682
  588SOL    HW1 2350   1.354   2.206   5.673
  588SOL    HW2 2351   1.224   2.215   5.595
  588SOL     MW 2352   1.266   2.201   5.671
  589SOL     OW 2353   4.843   2.015   5.387
  589SOL    HW1 2354   4.833   2.103   5.424
  589SOL    HW2 2355   4.757   1.992   5.356
  589SOL     MW 2356   4.832   2.023   5.388
  590SOL     OW 2357   0.344   2.348   5.597
  590SOL    HW1 2358   0.388   2.265   5.574
  590SOL    HW2 2359   0.301   2.328   5.679
  590SOL     MW 2360   0.345   2.335   5.604
  591SOL     OW 2361   2.200   1.384   0.390
  591SOL    HW1 2362   2.286   1.370   0.349
  591SOL    HW2 2363   2.217   1.447   0.459
  591SOL     MW 2364   2.213   1.390   0.393
  592SOL     OW 2365   3.585   1.767   0.678
  592SOL    HW1 2366   3.549   1.717   0.752
  592SOL    HW2 2367   3.667   1.723   0.657
  592SOL     MW 2368   3.590   1.756   0.684
  593SOL     OW 2369   3.334   3.005   0.541
  593SOL    HW1 2370   3.413   3.047   0.576
  593SOL    HW2 2371   3.337   3.024   0.448
  593SOL     MW 2372   3.344   3.012   0.534
  594SOL     OW 2373   1.331   2.051   5.182
  594SOL    HW1 2374   1.347   2.023   5.091
  594SOL    HW2 2375   1.270   1.987   5.216
  594SOL     MW 2376   1.326   2.040   5.175
  595SOL     OW 2377   3.481   1.052   6.086
  595SOL    HW1 2378   3.415   1.121   6.073
  595SOL    HW2 2379   3.517   1.039   5.999
  595SOL     MW 2380   3.477   1.059   6.074
  596SOL     OW 2381   1.374   1.592   5.862
  596SOL    HW1 2382   1.362   1.661   5.928
  596SOL    HW2 2383   1.287   1.556   5.850
  596SOL     MW 2384   1.362   1.596   5.869
  597SOL     OW 2385   4.658   5.858   5.541
  597SOL    HW1 2386   4.592   5.794   5.568
  597SOL    HW2 2387   4.645   5.931   5.600
  597SOL     MW 2388   4.649   5.859   5.551
  598SOL     OW 2389   3.618   5.620   4.353
  598SOL    HW1 2390   3.585   5.608   4.442
  598SOL    HW2 2391   3.540   5.635   4.301
  598SOL     MW 2392   3.605   5.620   4.358
  599SOL     OW 2393   1.026   5.627   3.106
  599SOL    HW1 2394   0.938   5.659   3.084
  599SOL    HW2 2395   1.078   5.646   3.028
  599SOL     MW 2396   1.022   5.633   3.094
  600SOL     OW 2397   2.860   0.394   1.721
  600SOL    HW1 2398   2.782   0.337   1.727
  600SOL    HW2 2399   2.892   0.381   1.633
  600SOL     MW 2400   2.854   0.386   1.711
  601SOL     OW 2401   3.994   3.703   4.440
  601SOL    HW1 2402   4.012   3.685   4.348
  601SOL    HW2 2403   3.918   3.759   4.439
  601SOL     MW 2404   3.987   3.707   4.429
  602SOL     OW 2405   3.906   3.974   2.824
  602SOL    HW1 2406   3.993   4.008   2.847
  602SOL    HW2 2407   3.923   3.907   2.759
  602SOL     MW 2408   3.919   3.970   2.819
  603SOL     OW 2409   4.221   1.311   5.263
  603SOL    HW1 2410   4.136   1.271   5.239
  603SOL    HW2 2411   4.198   1.395   5.299
  603SOL     MW 2412   4.208   1.316   5.264
  604SOL     OW 2413   5.299   4.461   0.813
  604SOL    HW1 2414   5.243   4.394   0.852
  604SOL    HW2 2415   5.270   4.542   0.853
  604SOL     MW 2416   5.289   4.462   0.822
  605SOL     OW 2417   0.717   5.498   1.914
  605SOL    HW1 2418   0.744   5.512   2.005
  605SOL    HW2 2419   0.744   5.409   1.895
  605SOL     MW 2420   0.723   5.489   1.923
  606SOL     OW 2421   1.323   3.685   3.945
  606SOL    HW1 2422   1.285   3.631   3.875
  606SOL    HW2 2423   1.260   3.678   4.016
  606SOL     MW 2424   1.311   3.678   3.945
  607SOL     OW 2425   0.824   0.227   5.554
  607SOL    HW1 2426   0.752   0.257   5.610
  607SOL    HW2 2427   0.797   0.251   5.466
  607SOL     MW 2428   0.812   0.233   5.551
  608SOL     OW 2429   1.559   1.859   5.210
  608SOL    HW1 2430   1.484   1.842   5.153
  608SOL    HW2 2431   1.540   1.810   5.289
  608SOL     MW 2432   1.548   1.851   5.212
  609SOL     OW 2433   1.891   1.444   3.893
  609SOL    HW1 2434   1.818   1.490   3.851
  609SOL    HW2 2435   1.951   1.513   3.918
  609SOL     MW 2436   1.889   1.457   3.891
  610SOL     OW 2437   3.271   1.068   4.813
  610SOL    HW1 2438   3.219   1.130   4.761
  610SOL    HW2 2439   3.332   1.032   4.751
  610SOL     MW 2440   3.272   1.071   4.799
  611SOL     OW 2441   5.818   2.338   4.650
  611SOL    HW1 2442   5.863   2.324   4.566
  611SOL    HW2 2443   5.761   2.412   4.635
  611SOL     MW 2444   5.817   2.345   4.638
  612SOL     OW 2445   1.009   5.792   2.040
  612SOL    HW1 2446   1.083   5.818   2.095
  612SOL    HW2 2447   1.043   5.793   1.952
  612SOL     MW 2448   1.022   5.795   2.036
  613SOL     OW 2449   4.716   0.429   4.703
  613SOL    HW1 2450   4.772   0.358   4.735
  613SOL    HW2 2451   4.636   0.386   4.678
  613SOL     MW 2452   4.713   0.415   4.704
  614SOL     OW 2453   0.152   5.895   4.459
  614SOL    HW1 2454   0.233   5.922   4.504
  614SOL    HW2 2455   0.173   5.903   4.367
  614SOL     MW 2456   0.165   5.899   4.454
  615SOL     OW 2457   3.643   0.408   3.087
  615SOL    HW1 2458   3.592   0.479   3.128
  615SOL    HW2 2459   3.637   0.426   2.994
  615SOL     MW 2460   3.636   0.419   3.081
  616SOL     OW 2461   1.427   1.324   0.482
  616SOL    HW1 2462   1.429   1.237   0.441
  616SOL    HW2 2463   1.391   1.380   0.414
  616SOL     MW 2464   1.423   1.320   0.469
  617SOL     OW 2465   2.494   3.480   2.396
  617SOL    HW1 2466   2.443   3.449   2.472
  617SOL    HW2 2467   2.481   3.574   2.397
  617SOL     MW 2468   2.487   3.487   2.406
  618SOL     OW 2469   0.176   2.924   0.681
  618SOL    HW1 2470   0.108   2.867   0.643
  618SOL    HW2 2471   0.144   2.945   0.768
  618SOL     MW 2472   0.164   2.920   0.686
  619SOL     OW 2473   4.705   4.422   4.783
  619SOL    HW1 2474   4.792   4.403   4.747
  619SOL    HW2 2475   4.714   4.404   4.876
  619SOL     MW 2476   4.717   4.417   4.790
  620SOL     OW 2477   2.919   2.870   2.544
  620SOL    HW1 2478   2.966   2.949   2.573
  620SOL    HW2 2479   2.835   2.876   2.587
  620SOL     MW 2480   2.914   2.881   2.552
  621SOL     OW 2481   0.767   1.003   2.014
  621SOL    HW1 2482   0.725   1.026   1.931
  621SOL    HW2 2483   0.820   0.927   1.993
  621SOL     MW 2484   0.768   0.997   2.002
  622SOL     OW 2485   4.489   3.393   4.911
  622SOL    HW1 2486   4.465   3.307   4.948
  622SOL    HW2 2487   4.482   3.452   4.985
  622SOL     MW 2488   4.485   3.390   4.925
  623SOL     OW 2489   6.079   0.935   3.135
  623SOL    HW1 2490   6.021   0.889   3.197
  623SOL    HW2 2491   6.024   0.949   3.059
  623SOL     MW 2492   6.065   0.931   3.134
  624SOL     OW 2493   2.776   3.297   4.365
  624SOL    HW1 2494   2.802   3.209   4.393
  624SOL    HW2 2495   2.841   3.354   4.405
  624SOL     MW 2496   2.787   3.293   4.373
  625SOL     OW 2497   0.086   0.324   5.612
  625SOL    HW1 2498   0.007   0.271   5.629
  625SOL    HW2 2499   0.149   0.293   5.676
  625SOL     MW 2500   0.084   0.314   5.622
  626SOL     OW 2501   2.208   3.678   5.082
  626SOL    HW1 2502   2.127   3.630   5.102
  626SOL    HW2 2503   2.253   3.684   5.166
  626SOL     MW 2504   2.203   3.673   5.095
  627SOL     OW 2505   0.534   3.565   4.471
  627SOL    HW1 2506   0.592   3.574   4.546
  627SOL    HW2 2507   0.592   3.559   4.396
  627SOL     MW 2508   0.548   3.566   4.471
  628SOL     OW 2509   3.034   5.896   4.954
  628SOL    HW1 2510   2.940   5.878   4.946
  628SOL    HW2 2511   3.042   5.943   5.036
  628SOL     MW 2512   3.023   5.900   4.962
  629SOL     OW 2513   2.909   5.407   1.554
  629SOL    HW1 2514   2.886   5.454   1.635
  629SOL    HW2 2515   3.002   5.420   1.545
  629SOL     MW 2516   2.917   5.414   1.562
  630SOL     OW 2517   3.761   4.850   3.369
  630SOL    HW1 2518   3.856   4.861   3.379
  630SOL    HW2 2519   3.733   4.928   3.323
  630SOL     MW 2520   3.769   4.860   3.365
  631SOL     OW 2521   5.422   2.805   4.426
  631SOL    HW1 2522   5.362   2.735   4.452
  631SOL    HW2 2523   5.503   2.759   4.405
  631SOL     MW 2524   5.425   2.791   4.426
  632SOL     OW 2525   1.926   2.219   0.215
  632SOL    HW1 2526   1.886   2.302   0.241
  632SOL    HW2 2527   1.916   2.217   0.120
  632SOL     MW 2528   1.920   2.229   0.207
  633SOL     OW 2529   4.877   2.124   2.478
  633SOL    HW1 2530   4.835   2.209   2.466
  633SOL    HW2 2531   4.908   2.100   2.391
  633SOL     MW 2532   4.876   2.131   2.466
  634SOL     OW 2533   6.090   1.138   3.572
  634SOL    HW1 2534   6.003   1.097   3.573
  634SOL    HW2 2535   6.090   1.193   3.496
  634SOL     MW 2536   6.079   1.139   3.563
  635SOL     OW 2537   3.185   4.937   4.158
  635SOL    HW1 2538   3.096   4.971   4.173
  635SOL    HW2 2539   3.185   4.914   4.066
  635SOL     MW 2540   3.174   4.938   4.149
  636SOL     OW 2541   5.346   1.393   5.484
  636SOL    HW1 2542   5.408   1.433   5.546
  636SOL    HW2 2543   5.374   1.425   5.399
  636SOL     MW 2544   5.357   1.402   5.482
  637SOL     OW 2545   5.183   0.004   0.159
  637SOL    HW1 2546   5.262  -0.048   0.181
  637SOL    HW2 2547   5.162   0.050   0.240
  637SOL     MW 2548   5.190   0.003   0.171
  638SOL     OW 2549   5.597   1.863   3.312
  638SOL    HW1 2550   5.639   1.785   3.273
  638SOL    HW2 2551   5.573   1.835   3.400
  638SOL     MW 2552   5.599   1.850   3.317
  639SOL     OW 2553   0.430   2.920   1.268
  639SOL    HW1 2554   0.366   2.861   1.228
  639SOL    HW2 2555   0.421   2.904   1.361
  639SOL     MW 2556   0.421   2.911   1.275
  640SOL     OW 2557   0.518   0.223   5.200
  640SOL    HW1 2558   0.496   0.129   5.205
  640SOL    HW2 2559   0.544   0.236   5.110
  640SOL     MW 2560   0.518   0.213   5.190
  641SOL     OW 2561   4.536   4.762   5.125
  641SOL    HW1 2562   4.625   4.732   5.103
  641SOL    HW2 2563   4.492   4.683   5.155
  641SOL     MW 2564   4.542   4.749   5.126
  642SOL     OW 2565   4.310   1.294   4.079
  642SOL    HW1 2566   4.328   1.211   4.125
  642SOL    HW2 2567   4.310   1.270   3.987
  642SOL     MW 2568   4.312   1.281   4.074
  643SOL     OW 2569   1.411   5.798   2.345
  643SOL    HW1 2570   1.405   5.721   2.401
  643SOL    HW2 2571   1.472   5.773   2.276
  643SOL     MW 2572   1.417   5.786   2.343
  644SOL     OW 2573   0.344   5.795   0.662
  644SOL    HW1 2574   0.292   5.854   0.717
  644SOL    HW2 2575   0.328   5.826   0.573
  644SOL     MW 2576   0.336   5.806   0.658
  645SOL     OW 2577   4.559   3.619   5.862
  645SOL    HW1 2578   4.603   3.702   5.883
  645SOL    HW2 2579   4.528   3.630   5.773
  645SOL     MW 2580   4.561   3.630   5.854
  646SOL     OW 2581   0.130   3.900   0.466
  646SOL    HW1 2582   0.064   3.835   0.439
  646SOL    HW2 2583   0.149   3.949   0.387
  646SOL     MW 2584   0.124   3.898   0.454
  647SOL     OW 2585   4.101   1.987   2.306
  647SOL    HW1 2586   4.186   1.977   2.263
  647SOL    HW2 2587   4.118   1.964   2.397
  647SOL     MW 2588   4.114   1.983   2.312
  648SOL     OW 2589   0.199   4.701   1.047
  648SOL    HW1 2590   0.159   4.620   1.015
  648SOL    HW2 2591   0.221   4.683   1.137
  648SOL     MW 2592   0.197   4.689   1.054
  649SOL     OW 2593   5.332   4.248   5.947
  649SOL    HW1 2594   5.392   4.174   5.958
  649SOL    HW2 2595   5.318   4.253   5.853
  649SOL     MW 2596   5.337   4.240   5.937
  650SOL     OW 2597   3.257   5.980   4.262
  650SOL    HW1 2598   3.260   5.953   4.354
  650SOL    HW2 2599   3.347   5.973   4.232
  650SOL     MW 2600   3.268   5.976   4.269
  651SOL     OW 2601   0.873   4.831   4.937
  651SOL    HW1 2602   0.954   4.784   4.915
  651SOL    HW2 2603   0.872   4.904   4.878
  651SOL     MW 2604   0.883   4.834   4.928
  652SOL     OW 2605   1.566   1.210   5.062
  652SOL    HW1 2606   1.597   1.239   4.976
  652SOL    HW2 2607   1.483   1.168   5.045
  652SOL     MW 2608   1.560   1.208   5.050
  653SOL     OW 2609   5.195   2.687   2.007
  653SOL    HW1 2610   5.175   2.627   2.079
  653SOL    HW2 2611   5.161   2.644   1.930
  653SOL     MW 2612   5.189   2.675   2.007
  654SOL     OW 2613   0.936   1.543   1.891
  654SOL    HW1 2614   1.009   1.483   1.873
  654SOL    HW2 2615   0.954   1.576   1.978
  654SOL     MW 2616   0.947   1.539   1.899
  655SOL     OW 2617   0.545   6.094   0.507
  655SOL    HW1 2618   0.555   6.078   0.602
  655SOL    HW2 2619   0.456   6.125   0.499
  655SOL     MW 2620   0.536   6.096   0.518
  656SOL     OW 2621   5.726   1.996   1.220
  656SOL    HW1 2622   5.718   2.091   1.218
  656SOL    HW2 2623   5.709   1.973   1.311
  656SOL     MW 2624   5.723   2.005   1.231
  657SOL     OW 2625   1.784   3.536   1.858
  657SOL    HW1 2626   1.760   3.630   1.857
  657SOL    HW2 2627   1.767   3.508   1.769
  657SOL     MW 2628   1.779   3.544   1.847
  658SOL     OW 2629   0.798   1.477   4.237
  658SOL    HW1 2630   0.721   1.437   4.195
  658SOL    HW2 2631   0.790   1.454   4.328
  658SOL     MW 2632   0.788   1.470   4.242
  659SOL     OW 2633   0.204   2.539   5.868
  659SOL    HW1 2634   0.200   2.447   5.897
  659SOL    HW2 2635   0.146   2.542   5.793
  659SOL     MW 2636   0.196   2.528   5.863
  660SOL     OW 2637   4.852   0.446   0.761
  660SOL    HW1 2638   4.774   0.447   0.705
  660SOL    HW2 2639   4.892   0.531   0.748
  660SOL     MW 2640   4.847   0.456   0.753
  661SOL     OW 2641   0.981   2.685   1.356
  661SOL    HW1 2642   1.033   2.722   1.283
  661SOL    HW2 2643   1.043   2.681   1.428
  661SOL     MW 2644   0.995   2.689   1.356
  662SOL     OW 2645   1.096   0.437   0.818
  662SOL    HW1 2646   1.152   0.503   0.777
  662SOL    HW2 2647   1.104   0.454   0.911
  662SOL     MW 2648   1.104   0.447   0.824
  663SOL     OW 2649   2.829   6.032   0.023
  663SOL    HW1 2650   2.742   6.057   0.057
  663SOL    HW2 2651   2.820   6.040  -0.071
  663SOL     MW 2652   2.817   6.036   0.016
  664SOL     OW 2653   1.435   6.058   0.022
  664SOL    HW1 2654   1.456   6.132  -0.037
  664SOL    HW2 2655   1.340   6.055   0.022
  664SOL     MW 2656   1.426   6.067   0.015
  665SOL     OW 2657   5.049   0.612   3.002
  665SOL    HW1 2658   5.128   0.646   3.045
  665SOL    HW2 2659   5.077   0.594   2.913
  665SOL     MW 2660   5.062   0.614   2.996
  666SOL     OW 2661   4.949   2.989   4.367
  666SOL    HW1 2662   5.026   2.992   4.308
  666SOL    HW2 2663   4.890   3.054   4.332
  666SOL     MW 2664   4.952   2.997   4.355
  667SOL     OW 2665   3.112   1.506   0.958
  667SOL    HW1 2666   3.187   1.551   0.918
  667SOL    HW2 2667   3.055   1.577   0.987
  667SOL     MW 2668   3.114   1.520   0.956
  668SOL     OW 2669   2.061   2.420   2.079
  668SOL    HW1 2670   2.154   2.445   2.070
  668SOL    HW2 2671   2.039   2.383   1.995
  668SOL     MW 2672   2.070   2.419   2.068
  669SOL     OW 2673   4.531   1.288   5.958
  669SOL    HW1 2674   4.504   1.207   6.004
  669SOL    HW2 2675   4.554   1.258   5.871
  669SOL     MW 2676   4.531   1.274   5.953
  670SOL     OW 2677   1.647   4.457   4.484
  670SOL    HW1 2678   1.717   4.391   4.486
  670SOL    HW2 2679   1.657   4.504   4.566
  670SOL     MW 2680   1.657   4.455   4.494
  671SOL     OW 2681   4.723   1.218   3.442
  671SOL    HW1 2682   4.703   1.131   3.480
  671SOL    HW2 2683   4.719   1.204   3.348
  671SOL     MW 2684   4.720   1.206   3.436
  672SOL     OW 2685   5.076   0.116   1.556
  672SOL    HW1 2686   5.091   0.025   1.529
  672SOL    HW2 2687   5.020   0.152   1.488
  672SOL     MW 2688   5.071   0.109   1.545
  673SOL     OW 2689   1.652   3.577   3.685
  673SOL    HW1 2690   1.695   3.653   3.726
  673SOL    HW2 2691   1.680   3.503   3.738
  673SOL     MW 2692   1.660   3.577   3.697
  674SOL     OW 2693   5.967   2.255   1.875
  674SOL    HW1 2694   6.006   2.257   1.787
  674SOL    HW2 2695   6.019   2.193   1.923
  674SOL     MW 2696   5.978   2.248   1.870
  675SOL     OW 2697   5.454   2.297   5.412
  675SOL    HW1 2698   5.402   2.268   5.337
  675SOL    HW2 2699   5.522   2.352   5.374
  675SOL     MW 2700   5.456   2.300   5.399
  676SOL     OW 2701   5.360   4.649   1.543
  676SOL    HW1 2702   5.317   4.735   1.544
  676SOL    HW2 2703   5.296   4.590   1.582
  676SOL     MW 2704   5.347   4.652   1.548
  677SOL     OW 2705   2.618   0.717   4.925
  677SOL    HW1 2706   2.648   0.806   4.944
  677SOL    HW2 2707   2.565   0.725   4.847
  677SOL     MW 2708   2.615   0.729   4.918
  678SOL     OW 2709   3.097   1.093   5.442
  678SOL    HW1 2710   3.006   1.066   5.428
  678SOL    HW2 2711   3.126   1.040   5.516
  678SOL     MW 2712   3.089   1.083   5.449
  679SOL     OW 2713   1.784   1.083   2.981
  679SOL    HW1 2714   1.728   1.028   2.926
  679SOL    HW2 2715   1.773   1.048   3.069
  679SOL     MW 2716   1.776   1.072   2.985
  680SOL     OW 2717   3.287   2.427   0.581
  680SOL    HW1 2718   3.231   2.438   0.504
  680SOL    HW2 2719   3.368   2.470   0.557
  680SOL     MW 2720   3.290   2.433   0.569
  681SOL     OW 2721   0.802   4.439   4.380
  681SOL    HW1 2722   0.818   4.532   4.360
  681SOL    HW2 2723   0.817   4.433   4.474
  681SOL     MW 2724   0.806   4.450   4.389
  682SOL     OW 2725   0.757   0.516   2.050
  682SOL    HW1 2726   0.810   0.456   1.997
  682SOL    HW2 2727   0.696   0.554   1.987
  682SOL     MW 2728   0.756   0.513   2.036
  683SOL     OW 2729   5.335   1.950   2.694
  683SOL    HW1 2730   5.242   1.956   2.716
  683SOL    HW2 2731   5.378   1.929   2.776
  683SOL     MW 2732   5.329   1.948   2.706
  684SOL     OW 2733   0.877   3.199   0.818
  684SOL    HW1 2734   0.839   3.283   0.846
  684SOL    HW2 2735   0.869   3.199   0.724
  684SOL     MW 2736   0.871   3.209   0.810
  685SOL     OW 2737   3.926   3.915   1.434
  685SOL    HW1 2738   3.948   3.827   1.466
  685SOL    HW2 2739   3.911   3.903   1.342
  685SOL     MW 2740   3.927   3.903   1.427
  686SOL     OW 2741   5.308   4.431   4.195
  686SOL    HW1 2742   5.297   4.336   4.197
  686SOL    HW2 2743   5.356   4.451   4.275
  686SOL     MW 2744   5.313   4.422   4.205
  687SOL     OW 2745   1.961   0.705   3.709
  687SOL    HW1 2746   1.889   0.651   3.743
  687SOL    HW2 2747   1.978   0.768   3.779
  687SOL     MW 2748   1.955   0.706   3.722
  688SOL     OW 2749   1.356   3.332   3.083
  688SOL    HW1 2750   1.423   3.391   3.118
  688SOL    HW2 2751   1.363   3.343   2.989
  688SOL     MW 2752   1.365   3.340   3.076
  689SOL     OW 2753   2.341   2.481   4.805
  689SOL    HW1 2754   2.292   2.464   4.886
  689SOL    HW2 2755   2.291   2.548   4.761
  689SOL     MW 2756   2.329   2.487   4.810
  690SOL     OW 2757   5.973   2.605   5.746
  690SOL    HW1 2758   5.896   2.550   5.728
  690SOL    HW2 2759   5.981   2.604   5.841
  690SOL     MW 2760   5.965   2.598   5.755
  691SOL     OW 2761   5.509   1.419   0.822
  691SOL    HW1 2762   5.574   1.419   0.751
  691SOL    HW2 2763   5.435   1.466   0.787
  691SOL     MW 2764   5.508   1.424   0.809
  692SOL     OW 2765   0.037   5.734   2.467
  692SOL    HW1 2766   0.115   5.702   2.421
  692SOL    HW2 2767  -0.034   5.683   2.431
  692SOL     MW 2768   0.038   5.724   2.457
  693SOL     OW 2769   1.062   0.967   3.276
  693SOL    HW1 2770   1.087   1.004   3.190
  693SOL    HW2 2771   1.141   0.923   3.305
  693SOL     MW 2772   1.075   0.967   3.269
  694SOL     OW 2773   0.849   2.648   3.950
  694SOL    HW1 2774   0.925   2.592   3.968
  694SOL    HW2 2775   0.815   2.616   3.867
  694SOL     MW 2776   0.854   2.637   3.942
  695SOL     OW 2777   4.150   3.302   0.307
  695SOL    HW1 2778   4.146   3.231   0.372
  695SOL    HW2 2779   4.239   3.335   0.314
  695SOL     MW 2780   4.160   3.297   0.316
  696SOL     OW 2781   3.295   1.098   2.110
  696SOL    HW1 2782   3.381   1.123   2.074
  696SOL    HW2 2783   3.309   1.096   2.203
  696SOL     MW 2784   3.307   1.101   2.116
  697SOL     OW 2785   1.842   3.211   5.987
  697SOL    HW1 2786   1.866   3.123   6.019
  697SOL    HW2 2787   1.804   3.195   5.902
  697SOL     MW 2788   1.841   3.198   5.981
  698SOL     OW 2789   4.175   0.125   4.136
  698SOL    HW1 2790   4.256   0.136   4.086
  698SOL    HW2 2791   4.201   0.072   4.211
  698SOL     MW 2792   4.188   0.120   4.139
  699SOL     OW 2793   2.089   0.150   0.638
  699SOL    HW1 2794   2.046   0.196   0.711
  699SOL    HW2 2795   2.083   0.211   0.566
  699SOL     MW 2796   2.083   0.163   0.638
  700SOL     OW 2797   1.450   5.150   0.063
  700SOL    HW1 2798   1.373   5.189   0.020
  700SOL    HW2 2799   1.425   5.144   0.155
  700SOL     MW 2800   1.438   5.154   0.069
  701SOL     OW 2801   4.001   4.682   1.842
  701SOL    HW1 2802   4.079   4.726   1.808
  701SOL    HW2 2803   3.983   4.613   1.779
  701SOL     MW 2804   4.008   4.679   1.830
  702SOL     OW 2805   1.599   1.097   0.858
  702SOL    HW1 2806   1.591   1.092   0.954
  702SOL    HW2 2807   1.685   1.063   0.839
  702SOL     MW 2808   1.608   1.093   0.867
  703SOL     OW 2809   1.805   2.597   5.216
  703SOL    HW1 2810   1.883   2.568   5.169
  703SOL    HW2 2811   1.826   2.587   5.308
  703SOL     MW 2812   1.817   2.593   5.221
  704SOL     OW 2813   2.573   6.003   4.478
  704SOL    HW1 2814   2.595   6.017   4.385
  704SOL    HW2 2815   2.518   5.926   4.477
  704SOL     MW 2816   2.569   5.996   4.466
  705SOL     OW 2817   1.532   4.229   4.235
  705SOL    HW1 2818   1.518   4.151   4.291
  705SOL    HW2 2819   1.490   4.206   4.153
  705SOL     MW 2820   1.525   4.217   4.233
  706SOL     OW 2821   5.388   0.498   2.105
  706SOL    HW1 2822   5.386   0.567   2.172
  706SOL    HW2 2823   5.303   0.505   2.062
  706SOL     MW 2824   5.377   0.507   2.108
  707SOL     OW 2825   5.117   5.380   3.656
  707SOL    HW1 2826   5.068   5.359   3.737
  707SOL    HW2 2827   5.144   5.296   3.622
  707SOL     MW 2828   5.114   5.367   3.662
  708SOL     OW 2829   3.505   4.803   4.981
  708SOL    HW1 2830   3.453   4.763   4.910
  708SOL    HW2 2831   3.473   4.761   5.060
  708SOL     MW 2832   3.495   4.793   4.981
  709SOL     OW 2833   3.750   2.496   4.233
  709SOL    HW1 2834   3.825   2.455   4.190
  709SOL    HW2 2835   3.767   2.486   4.325
  709SOL     MW 2836   3.761   2.490   4.238
  710SOL     OW 2837   0.690   1.905   4.694
  710SOL    HW1 2838   0.750   1.971   4.657
  710SOL    HW2 2839   0.603   1.937   4.672
  710SOL     MW 2840   0.687   1.917   4.687
  711SOL     OW 2841   4.435   4.436   4.178
  711SOL    HW1 2842   4.454   4.422   4.084
  711SOL    HW2 2843   4.491   4.373   4.222
  711SOL     MW 2844   4.444   4.427   4.172
  712SOL     OW 2845   1.538   3.375   4.985
  712SOL    HW1 2846   1.481   3.340   4.916
  712SOL    HW2 2847   1.591   3.440   4.940
  712SOL     MW 2848   1.538   3.379   4.971
  713SOL     OW 2849   2.020   5.740   4.862
  713SOL    HW1 2850   1.955   5.797   4.820
  713SOL    HW2 2851   2.081   5.718   4.793
  713SOL     MW 2852   2.020   5.744   4.849
  714SOL     OW 2853   6.107   1.605   1.377
  714SOL    HW1 2854   6.064   1.580   1.460
  714SOL    HW2 2855   6.093   1.529   1.321
  714SOL     MW 2856   6.100   1.593   1.381
  715SOL     OW 2857   2.862   4.042   5.299
  715SOL    HW1 2858   2.902   4.128   5.312
  715SOL    HW2 2859   2.934   3.981   5.310
  715SOL     MW 2860   2.875   4.045   5.302
  716SOL     OW 2861   3.059   5.259   5.387
  716SOL    HW1 2862   3.141   5.289   5.347
  716SOL    HW2 2863   3.076   5.260   5.480
  716SOL     MW 2864   3.071   5.262   5.393
  717SOL     OW 2865   5.702   1.177   4.128
  717SOL    HW1 2866   5.789   1.216   4.116
  717SOL    HW2 2867   5.685   1.185   4.221
  717SOL     MW 2868   5.711   1.183   4.137
  718SOL     OW 2869  -0.005   4.649   2.969
  718SOL    HW1 2870   0.083   4.687   2.973
  718SOL    HW2 2871  -0.017   4.628   2.877
  718SOL     MW 2872   0.004   4.651   2.958
  719SOL     OW 2873   4.977   3.583   3.726
  719SOL    HW1 2874   5.055   3.559   3.675
  719SOL    HW2 2875   4.954   3.504   3.774
  719SOL     MW 2876   4.984   3.571   3.726
  720SOL     OW 2877   1.697   3.805   4.192
  720SOL    HW1 2878   1.634   3.832   4.259
  720SOL    HW2 2879   1.644   3.778   4.119
  720SOL     MW 2880   1.683   3.805   4.191
  721SOL     OW 2881   3.559   4.167   4.718
  721SOL    HW1 2882   3.528   4.139   4.630
  721SOL    HW2 2883   3.652   4.177   4.707
  721SOL     MW 2884   3.566   4.165   4.706
  722SOL     OW 2885   2.292   3.215   0.439
  722SOL    HW1 2886   2.257   3.127   0.421
  722SOL    HW2 2887   2.314   3.213   0.532
  722SOL     MW 2888   2.290   3.204   0.448
  723SOL     OW 2889   0.476   0.522   0.827
  723SOL    HW1 2890   0.441   0.583   0.761
  723SOL    HW2 2891   0.532   0.463   0.777
  723SOL     MW 2892   0.479   0.523   0.813
  724SOL     OW 2893   1.041   1.060   5.201
  724SOL    HW1 2894   1.116   1.116   5.226
  724SOL    HW2 2895   1.052   1.047   5.108
  724SOL     MW 2896   1.051   1.066   5.193
  725SOL     OW 2897   4.910   4.568   2.310
  725SOL    HW1 2898   4.880   4.612   2.390
  725SOL    HW2 2899   4.902   4.634   2.242
  725SOL     MW 2900   4.905   4.581   2.312
  726SOL     OW 2901   5.464   5.779   3.699
  726SOL    HW1 2902   5.383   5.812   3.739
  726SOL    HW2 2903   5.450   5.788   3.606
  726SOL     MW 2904   5.453   5.784   3.693
  727SOL     OW 2905   1.696   5.925   2.816
  727SOL    HW1 2906   1.649   5.851   2.857
  727SOL    HW2 2907   1.682   5.912   2.723
  727SOL     MW 2908   1.688   5.914   2.810
  728SOL     OW 2909   0.678   2.071   0.403
  728SOL    HW1 2910   0.639   1.988   0.430
  728SOL    HW2 2911   0.674   2.069   0.308
  728SOL     MW 2912   0.673   2.060   0.395
  729SOL     OW 2913   5.529   1.033   2.495
  729SOL    HW1 2914   5.584   1.059   2.569
  729SOL    HW2 2915   5.572   1.072   2.420
  729SOL     MW 2916   5.541   1.041   2.495
  730SOL     OW 2917   1.915   5.332   0.657
  730SOL    HW1 2918   1.982   5.294   0.715
  730SOL    HW2 2919   1.863   5.387   0.714
  730SOL     MW 2920   1.917   5.334   0.671
  731SOL     OW 2921   3.377   1.531   1.755
  731SOL    HW1 2922   3.317   1.501   1.685
  731SOL    HW2 2923   3.319   1.553   1.827
  731SOL     MW 2924   3.363   1.530   1.755
  732SOL     OW 2925   5.089   3.748   0.928
  732SOL    HW1 2926   5.143   3.803   0.871
  732SOL    HW2 2927   5.111   3.777   1.016
  732SOL     MW 2928   5.098   3.758   0.931
  733SOL     OW 2929   2.855   4.500   0.414
  733SOL    HW1 2930   2.851   4.508   0.510
  733SOL    HW2 2931   2.943   4.527   0.392
  733SOL     MW 2932   2.865   4.505   0.423
  734SOL     OW 2933   3.691   1.371  -0.008
  734SOL    HW1 2934   3.776   1.386  -0.050
  734SOL    HW2 2935   3.708   1.381   0.085
  734SOL     MW 2936   3.703   1.374  -0.002
  735SOL     OW 2937   0.303   4.363   2.856
  735SOL    HW1 2938   0.266   4.419   2.787
  735SOL    HW2 2939   0.311   4.422   2.931
  735SOL     MW 2940   0.299   4.377   2.856
  736SOL     OW 2941   0.463   2.110   1.282
  736SOL    HW1 2942   0.394   2.175   1.267
  736SOL    HW2 2943   0.480   2.074   1.196
  736SOL     MW 2944   0.457   2.114   1.270
  737SOL     OW 2945   0.165   2.277   5.120
  737SOL    HW1 2946   0.182   2.334   5.044
  737SOL    HW2 2947   0.104   2.326   5.173
  737SOL     MW 2948   0.160   2.289   5.117
  738SOL     OW 2949   5.422   4.179   0.931
  738SOL    HW1 2950   5.343   4.229   0.952
  738SOL    HW2 2951   5.493   4.231   0.966
  738SOL     MW 2952   5.421   4.191   0.938
  739SOL     OW 2953   3.599   4.405   3.774
  739SOL    HW1 2954   3.530   4.469   3.755
  739SOL    HW2 2955   3.679   4.448   3.748
  739SOL     MW 2956   3.600   4.418   3.769
  740SOL     OW 2957   2.847   0.169   4.540
  740SOL    HW1 2958   2.930   0.122   4.556
  740SOL    HW2 2959   2.800   0.114   4.479
  740SOL     MW 2960   2.852   0.157   4.535
  741SOL     OW 2961   2.448   3.127   3.879
  741SOL    HW1 2962   2.488   3.187   3.942
  741SOL    HW2 2963   2.520   3.098   3.825
  741SOL     MW 2964   2.461   3.131   3.881
  742SOL     OW 2965   1.323   1.391   1.590
  742SOL    HW1 2966   1.411   1.352   1.584
  742SOL    HW2 2967   1.287   1.382   1.503
  742SOL     MW 2968   1.330   1.385   1.579
  743SOL     OW 2969   5.732   5.398   2.622
  743SOL    HW1 2970   5.649   5.352   2.636
  743SOL    HW2 2971   5.748   5.391   2.529
  743SOL     MW 2972   5.724   5.392   2.613
  744SOL     OW 2973   4.405   4.195   3.313
  744SOL    HW1 2974   4.418   4.281   3.355
  744SOL    HW2 2975   4.364   4.142   3.380
  744SOL     MW 2976   4.402   4.200   3.326
  745SOL     OW 2977   2.300   5.516   0.533
  745SOL    HW1 2978   2.356   5.512   0.455
  745SOL    HW2 2979   2.228   5.457   0.513
  745SOL     MW 2980   2.298   5.508   0.521
  746SOL     OW 2981   1.661   5.426   3.836
  746SOL    HW1 2982   1.580   5.385   3.805
  746SOL    HW2 2983   1.648   5.439   3.929
  746SOL     MW 2984   1.650   5.423   3.843
  747SOL     OW 2985   2.959   0.640   1.054
  747SOL    HW1 2986   2.911   0.623   0.972
  747SOL    HW2 2987   3.029   0.577   1.053
  747SOL     MW 2988   2.961   0.631   1.044
  748SOL     OW 2989   0.437   5.167   5.255
  748SOL    HW1 2990   0.484   5.087   5.283
  748SOL    HW2 2991   0.483   5.195   5.177
  748SOL     MW 2992   0.448   5.160   5.249
  749SOL     OW 2993   3.474   1.725   4.029
  749SOL    HW1 2994   3.456   1.817   4.006
  749SOL    HW2 2995   3.500   1.728   4.120
  749SOL     MW 2996   3.475   1.737   4.037
  750SOL     OW 2997   5.267   2.455   4.738
  750SOL    HW1 2998   5.323   2.391   4.693
  750SOL    HW2 2999   5.314   2.474   4.819
  750SOL     MW 3000   5.280   2.450   4.742
  751SOL     OW 3001   5.346   0.425   4.562
  751SOL    HW1 3002   5.262   0.446   4.604
  751SOL    HW2 3003   5.322   0.372   4.487
  751SOL     MW 3004   5.333   0.422   4.559
  752SOL     OW 3005   1.494   4.126   3.477
  752SOL    HW1 3006   1.565   4.176   3.519
  752SOL    HW2 3007   1.537   4.085   3.403
  752SOL     MW 3008   1.508   4.127   3.473
  753SOL     OW 3009   1.580   5.891   4.695
  753SOL    HW1 3010   1.522   5.820   4.665
  753SOL    HW2 3011   1.587   5.877   4.788
  753SOL     MW 3012   1.574   5.880   4.702
  754SOL     OW 3013   5.381   3.714   4.335
  754SOL    HW1 3014   5.461   3.728   4.387
  754SOL    HW2 3015   5.409   3.723   4.245
  754SOL     MW 3016   5.394   3.717   4.331
  755SOL     OW 3017   5.750   0.413   2.368
  755SOL    HW1 3018   5.691   0.383   2.298
  755SOL    HW2 3019   5.771   0.502   2.344
  755SOL     MW 3020   5.745   0.420   2.357
  756SOL     OW 3021   3.722   4.839   1.802
  756SOL    HW1 3022   3.669   4.907   1.844
  756SOL    HW2 3023   3.668   4.809   1.729
  756SOL     MW 3024   3.709   4.844   1.798
  757SOL     OW 3025   1.617   3.400   0.026
  757SOL    HW1 3026   1.657   3.346  -0.043
  757SOL    HW2 3027   1.540   3.351   0.051
  757SOL     MW 3028   1.613   3.388   0.020
  758SOL     OW 3029   2.226   5.750   4.606
  758SOL    HW1 3030   2.298   5.710   4.656
  758SOL    HW2 3031   2.253   5.744   4.516
  758SOL     MW 3032   2.238   5.744   4.602
  759SOL     OW 3033   1.328   6.040   3.515
  759SOL    HW1 3034   1.257   5.989   3.475
  759SOL    HW2 3035   1.340   6.000   3.600
  759SOL     MW 3036   1.320   6.029   3.520
  760SOL     OW 3037   1.220   0.011   0.859
  760SOL    HW1 3038   1.294   0.068   0.882
  760SOL    HW2 3039   1.193   0.040   0.773
  760SOL     MW 3040   1.226   0.021   0.852
  761SOL     OW 3041   3.927   0.157   1.414
  761SOL    HW1 3042   3.928   0.088   1.481
  761SOL    HW2 3043   3.995   0.130   1.353
  761SOL     MW 3044   3.935   0.145   1.415
  762SOL     OW 3045   2.846   2.038   5.053
  762SOL    HW1 3046   2.764   2.087   5.054
  762SOL    HW2 3047   2.878   2.045   5.142
  762SOL     MW 3048   2.840   2.045   5.064
  763SOL     OW 3049   1.554   2.600   2.673
  763SOL    HW1 3050   1.485   2.571   2.734
  763SOL    HW2 3051   1.521   2.576   2.588
  763SOL     MW 3052   1.541   2.594   2.671
  764SOL     OW 3053   3.139   3.445   0.182
  764SOL    HW1 3054   3.197   3.520   0.198
  764SOL    HW2 3055   3.157   3.386   0.255
  764SOL     MW 3056   3.148   3.447   0.193
  765SOL     OW 3057   0.264   0.504   2.193
  765SOL    HW1 3058   0.241   0.588   2.234
  765SOL    HW2 3059   0.264   0.523   2.100
  765SOL     MW 3060   0.261   0.516   2.187
  766SOL     OW 3061   1.352   1.886   6.097
  766SOL    HW1 3062   1.294   1.817   6.130
  766SOL    HW2 3063   1.350   1.875   6.002
  766SOL     MW 3064   1.345   1.877   6.089
  767SOL     OW 3065   2.466   1.789   4.466
  767SOL    HW1 3066   2.420   1.840   4.533
  767SOL    HW2 3067   2.549   1.835   4.455
  767SOL     MW 3068   2.470   1.801   4.473
  768SOL     OW 3069   5.796   1.481   5.133
  768SOL    HW1 3070   5.758   1.416   5.072
  768SOL    HW2 3071   5.747   1.560   5.116
  768SOL     MW 3072   5.785   1.482   5.123
  769SOL     OW 3073   1.796   1.370   5.555
  769SOL    HW1 3074   1.868   1.328   5.602
  769SOL    HW2 3075   1.816   1.357   5.463
  769SOL     MW 3076   1.807   1.364   5.549
  770SOL     OW 3077   2.361   4.399   3.470
  770SOL    HW1 3078   2.274   4.437   3.489
  770SOL    HW2 3079   2.344   4.337   3.401
  770SOL     MW 3080   2.348   4.397   3.464
  771SOL     OW 3081   0.597   3.144   0.750
  771SOL    HW1 3082   0.501   3.138   0.759
  771SOL    HW2 3083   0.611   3.227   0.706
  771SOL     MW 3084   0.587   3.153   0.745
  772SOL     OW 3085   1.309   3.784   4.307
  772SOL    HW1 3086   1.258   3.834   4.241
  772SOL    HW2 3087   1.300   3.835   4.386
  772SOL     MW 3088   1.302   3.796   4.308
  773SOL     OW 3089   2.966   1.322   4.975
  773SOL    HW1 3090   2.953   1.300   5.068
  773SOL    HW2 3091   3.045   1.374   4.974
  773SOL     MW 3092   2.973   1.325   4.986
  774SOL     OW 3093   1.738   3.040   0.321
  774SOL    HW1 3094   1.751   2.975   0.391
  774SOL    HW2 3095   1.693   2.993   0.253
  774SOL     MW 3096   1.734   3.026   0.322
  775SOL     OW 3097   2.879   3.862   0.025
  775SOL    HW1 3098   2.928   3.784  -0.001
  775SOL    HW2 3099   2.868   3.853   0.119
  775SOL     MW 3100   2.883   3.851   0.033
  776SOL     OW 3101   2.425   1.187   4.943
  776SOL    HW1 3102   2.472   1.137   5.010
  776SOL    HW2 3103   2.465   1.273   4.945
  776SOL     MW 3104   2.435   1.191   4.951
  777SOL     OW 3105   4.476   5.483   1.600
  777SOL    HW1 3106   4.530   5.555   1.564
  777SOL    HW2 3107   4.453   5.513   1.687
  777SOL     MW 3108   4.480   5.496   1.606
  778SOL     OW 3109   0.185   4.615   5.132
  778SOL    HW1 3110   0.276   4.645   5.118
  778SOL    HW2 3111   0.183   4.588   5.223
  778SOL     MW 3112   0.196   4.616   5.141
  779SOL     OW 3113   0.544   5.767   4.662
  779SOL    HW1 3114   0.570   5.729   4.577
  779SOL    HW2 3115   0.617   5.748   4.719
  779SOL     MW 3116   0.556   5.760   4.658
  780SOL     OW 3117   3.914   3.697   2.043
  780SOL    HW1 3118   3.885   3.711   2.134
  780SOL    HW2 3119   4.005   3.671   2.052
  780SOL     MW 3120   3.921   3.695   2.055
  781SOL     OW 3121   3.952   1.733   4.680
  781SOL    HW1 3122   3.975   1.751   4.772
  781SOL    HW2 3123   3.886   1.665   4.686
  781SOL     MW 3124   3.947   1.727   4.692
  782SOL     OW 3125   4.053   1.375   3.625
  782SOL    HW1 3126   4.013   1.323   3.554
  782SOL    HW2 3127   4.078   1.456   3.583
  782SOL     MW 3128   4.051   1.378   3.611
  783SOL     OW 3129   5.395   5.870   2.816
  783SOL    HW1 3130   5.481   5.913   2.826
  783SOL    HW2 3131   5.391   5.846   2.725
  783SOL     MW 3132   5.405   5.872   2.807
  784SOL     OW 3133   1.715   4.085   3.861
  784SOL    HW1 3134   1.649   4.023   3.829
  784SOL    HW2 3135   1.688   4.104   3.950
  784SOL     MW 3136   1.704   4.079   3.868
  785SOL     OW 3137   1.975   2.212   0.560
  785SOL    HW1 3138   2.002   2.209   0.468
  785SOL    HW2 3139   1.886   2.180   0.560
  785SOL     MW 3140   1.968   2.208   0.549
  786SOL     OW 3141   3.689   0.717   4.585
  786SOL    HW1 3142   3.644   0.714   4.670
  786SOL    HW2 3143   3.756   0.783   4.596
  786SOL     MW 3144   3.691   0.724   4.597
  787SOL     OW 3145   3.803   5.760   5.231
  787SOL    HW1 3146   3.784   5.855   5.237
  787SOL    HW2 3147   3.892   5.757   5.198
  787SOL     MW 3148   3.812   5.772   5.228
  788SOL     OW 3149   4.349   1.549   2.323
  788SOL    HW1 3150   4.391   1.524   2.406
  788SOL    HW2 3151   4.353   1.643   2.323
  788SOL     MW 3152   4.355   1.557   2.333
  789SOL     OW 3153   0.175   0.071   3.912
  789SOL    HW1 3154   0.214   0.016   3.981
  789SOL    HW2 3155   0.162   0.012   3.839
  789SOL     MW 3156   0.178   0.058   3.912
  790SOL     OW 3157   1.043   0.184   2.196
  790SOL    HW1 3158   1.036   0.250   2.266
  790SOL    HW2 3159   0.953   0.163   2.174
  790SOL     MW 3160   1.031   0.190   2.202
  791SOL     OW 3161   0.278   3.936   0.816
  791SOL    HW1 3162   0.368   3.968   0.832
  791SOL    HW2 3163   0.281   3.904   0.727
  791SOL     MW 3164   0.290   3.936   0.807
  792SOL     OW 3165   4.096   3.162   1.521
  792SOL    HW1 3166   4.105   3.066   1.512
  792SOL    HW2 3167   4.033   3.185   1.454
  792SOL     MW 3168   4.089   3.153   1.512
  793SOL     OW 3169   2.724   1.561   6.048
  793SOL    HW1 3170   2.714   1.642   6.098
  793SOL    HW2 3171   2.787   1.583   5.981
  793SOL     MW 3172   2.730   1.574   6.046
  794SOL     OW 3173   2.473   0.324   0.787
  794SOL    HW1 3174   2.487   0.235   0.752
  794SOL    HW2 3175   2.479   0.312   0.881
  794SOL     MW 3176   2.475   0.312   0.794
  795SOL     OW 3177   5.206   0.337   0.097
  795SOL    HW1 3178   5.283   0.347   0.155
  795SOL    HW2 3179   5.238   0.363   0.012
  795SOL     MW 3180   5.219   0.341   0.094
  796SOL     OW 3181   5.491   3.109   5.181
  796SOL    HW1 3182   5.576   3.094   5.222
  796SOL    HW2 3183   5.508   3.101   5.088
  796SOL     MW 3184   5.503   3.106   5.175
  797SOL     OW 3185   5.711   2.942   1.690
  797SOL    HW1 3186   5.675   2.926   1.602
  797SOL    HW2 3187   5.764   2.865   1.708
  797SOL     MW 3188   5.713   2.931   1.682
  798SOL     OW 3189   4.465   3.439   2.304
  798SOL    HW1 3190   4.412   3.362   2.279
  798SOL    HW2 3191   4.445   3.452   2.396
  798SOL     MW 3192   4.456   3.431   2.312
  799SOL     OW 3193   2.465   2.800   2.209
  799SOL    HW1 3194   2.408   2.804   2.286
  799SOL    HW2 3195   2.411   2.833   2.138
  799SOL     MW 3196   2.452   2.805   2.210
  800SOL     OW 3197   4.808   3.769   4.700
  800SOL    HW1 3198   4.869   3.707   4.741
  800SOL    HW2 3199   4.817   3.753   4.607
  800SOL     MW 3200   4.817   3.760   4.694
  801SOL     OW 3201   3.523   1.617   3.238
  801SOL    HW1 3202   3.454   1.582   3.181
  801SOL    HW2 3203   3.491   1.602   3.326
  801SOL     MW 3204   3.511   1.611   3.241
  802SOL     OW 3205   2.832   3.143   3.455
  802SOL    HW1 3206   2.788   3.186   3.529
  802SOL    HW2 3207   2.881   3.212   3.413
  802SOL     MW 3208   2.832   3.156   3.459
  803SOL     OW 3209   4.428   4.912   2.624
  803SOL    HW1 3210   4.510   4.862   2.622
  803SOL    HW2 3211   4.448   4.991   2.576
  803SOL     MW 3212   4.440   4.915   2.618
  804SOL     OW 3213   3.558   1.091   4.532
  804SOL    HW1 3214   3.581   1.045   4.450
  804SOL    HW2 3215   3.573   1.026   4.599
  804SOL     MW 3216   3.563   1.077   4.530
  805SOL     OW 3217   1.493   2.059   3.916
  805SOL    HW1 3218   1.497   2.128   3.983
  805SOL    HW2 3219   1.415   2.080   3.866
  805SOL     MW 3220   1.484   2.070   3.918
  806SOL     OW 3221   0.709   5.656   4.003
  806SOL    HW1 3222   0.780   5.591   4.007
  806SOL    HW2 3223   0.662   5.635   3.923
  806SOL     MW 3224   0.712   5.646   3.994
  807SOL     OW 3225   5.690   3.531   5.530
  807SOL    HW1 3226   5.763   3.491   5.579
  807SOL    HW2 3227   5.732   3.600   5.480
  807SOL     MW 3228   5.704   3.534   5.530
  808SOL     OW 3229   5.343   2.003   0.966
  808SOL    HW1 3230   5.278   2.075   0.962
  808SOL    HW2 3231   5.306   1.942   1.028
  808SOL     MW 3232   5.330   2.005   0.973
  809SOL     OW 3233   0.623   1.287   4.706
  809SOL    HW1 3234   0.612   1.235   4.626
  809SOL    HW2 3235   0.717   1.294   4.717
  809SOL     MW 3236   0.633   1.281   4.698
  810SOL     OW 3237   1.701   1.718   2.091
  810SOL    HW1 3238   1.624   1.694   2.144
  810SOL    HW2 3239   1.674   1.702   2.002
  810SOL     MW 3240   1.688   1.714   2.087
  811SOL     OW 3241   2.372   3.311   1.299
  811SOL    HW1 3242   2.408   3.236   1.251
  811SOL    HW2 3243   2.378   3.284   1.390
  811SOL     MW 3244   2.377   3.298   1.304
  812SOL     OW 3245   3.927   0.345   5.619
  812SOL    HW1 3246   3.833   0.355   5.600
  812SOL    HW2 3247   3.930   0.328   5.712
  812SOL     MW 3248   3.916   0.344   5.628
  813SOL     OW 3249   5.128   6.038   1.935
  813SOL    HW1 3250   5.174   6.056   1.853
  813SOL    HW2 3251   5.183   6.077   2.002
  813SOL     MW 3252   5.140   6.045   1.933
  814SOL     OW 3253   2.588   5.039   4.887
  814SOL    HW1 3254   2.607   4.966   4.828
  814SOL    HW2 3255   2.540   5.100   4.834
  814SOL     MW 3256   2.585   5.037   4.874
  815SOL     OW 3257   2.944   1.576   3.367
  815SOL    HW1 3258   2.950   1.654   3.310
  815SOL    HW2 3259   2.950   1.611   3.455
  815SOL     MW 3260   2.945   1.590   3.370
  816SOL     OW 3261   4.592   4.876   1.185
  816SOL    HW1 3262   4.673   4.875   1.236
  816SOL    HW2 3263   4.573   4.968   1.172
  816SOL     MW 3264   4.600   4.886   1.190
  817SOL     OW 3265   1.380   5.444   3.612
  817SOL    HW1 3266   1.340   5.364   3.647
  817SOL    HW2 3267   1.348   5.449   3.523
  817SOL     MW 3268   1.371   5.435   3.606
  818SOL     OW 3269   5.675   3.737   3.530
  818SOL    HW1 3270   5.730   3.670   3.489
  818SOL    HW2 3271   5.695   3.730   3.622
  818SOL     MW 3272   5.684   3.728   3.536
  819SOL     OW 3273   0.586   4.525   2.269
  819SOL    HW1 3274   0.635   4.443   2.282
  819SOL    HW2 3275   0.601   4.574   2.350
  819SOL     MW 3276   0.594   4.521   2.280
  820SOL     OW 3277   0.296   4.210   2.466
  820SOL    HW1 3278   0.241   4.137   2.437
  820SOL    HW2 3279   0.381   4.191   2.428
  820SOL     MW 3280   0.300   4.199   2.458
  821SOL     OW 3281   5.575   0.100   3.568
  821SOL    HW1 3282   5.553   0.007   3.560
  821SOL    HW2 3283   5.587   0.114   3.661
  821SOL     MW 3284   5.574   0.090   3.578
  822SOL     OW 3285   0.331   3.679   2.578
  822SOL    HW1 3286   0.330   3.604   2.639
  822SOL    HW2 3287   0.291   3.645   2.499
  822SOL     MW 3288   0.326   3.666   2.576
  823SOL     OW 3289   2.223   6.037   1.731
  823SOL    HW1 3290   2.182   5.996   1.655
  823SOL    HW2 3291   2.247   5.964   1.788
  823SOL     MW 3292   2.221   6.023   1.729
  824SOL     OW 3293   3.271   2.492   2.916
  824SOL    HW1 3294   3.179   2.521   2.919
  824SOL    HW2 3295   3.296   2.506   2.825
  824SOL     MW 3296   3.262   2.497   2.905
  825SOL     OW 3297   1.095   3.117   2.683
  825SOL    HW1 3298   1.190   3.116   2.700
  825SOL    HW2 3299   1.085   3.070   2.602
  825SOL     MW 3300   1.106   3.111   2.676
  826SOL     OW 3301   0.659   0.798   1.560
  826SOL    HW1 3302   0.642   0.703   1.560
  826SOL    HW2 3303   0.687   0.815   1.471
  826SOL     MW 3304   0.661   0.788   1.549
  827SOL     OW 3305   1.971   4.924   4.174
  827SOL    HW1 3306   2.037   4.887   4.115
  827SOL    HW2 3307   1.980   5.018   4.162
  827SOL     MW 3308   1.980   4.931   4.166
  828SOL     OW 3309   4.299   3.404   5.498
  828SOL    HW1 3310   4.367   3.472   5.493
  828SOL    HW2 3311   4.257   3.407   5.413
  828SOL     MW 3312   4.302   3.413   5.487
  829SOL     OW 3313   0.149   3.160   2.544
  829SOL    HW1 3314   0.082   3.096   2.516
  829SOL    HW2 3315   0.105   3.244   2.539
  829SOL     MW 3316   0.136   3.162   2.540
  830SOL     OW 3317   4.917   0.602   5.924
  830SOL    HW1 3318   4.868   0.523   5.949
  830SOL    HW2 3319   4.932   0.593   5.831
  830SOL     MW 3320   4.913   0.592   5.916
  831SOL     OW 3321   3.132   5.315   1.571
  831SOL    HW1 3322   3.120   5.385   1.637
  831SOL    HW2 3323   3.160   5.240   1.621
  831SOL     MW 3324   3.134   5.315   1.585
  832SOL     OW 3325   0.564   2.702   5.099
  832SOL    HW1 3326   0.607   2.636   5.153
  832SOL    HW2 3327   0.622   2.777   5.102
  832SOL     MW 3328   0.576   2.703   5.106
  833SOL     OW 3329   0.253   3.410   3.319
  833SOL    HW1 3330   0.219   3.328   3.358
  833SOL    HW2 3331   0.312   3.380   3.251
  833SOL     MW 3332   0.255   3.396   3.316
  834SOL     OW 3333   5.836   2.178   1.459
  834SOL    HW1 3334   5.875   2.098   1.424
  834SOL    HW2 3335   5.827   2.162   1.552
  834SOL     MW 3336   5.840   2.167   1.466
  835SOL     OW 3337   1.400   1.437   2.456
  835SOL    HW1 3338   1.487   1.422   2.417
  835SOL    HW2 3339   1.418   1.488   2.534
  835SOL     MW 3340   1.413   1.441   2.460
  836SOL     OW 3341   3.707   1.907   1.111
  836SOL    HW1 3342   3.790   1.859   1.108
  836SOL    HW2 3343   3.683   1.908   1.203
  836SOL     MW 3344   3.714   1.901   1.121
  837SOL     OW 3345   4.394   0.529   4.989
  837SOL    HW1 3346   4.460   0.493   5.050
  837SOL    HW2 3347   4.332   0.458   4.978
  837SOL     MW 3348   4.395   0.516   4.995
  838SOL     OW 3349   0.256   5.506   2.585
  838SOL    HW1 3350   0.297   5.576   2.638
  838SOL    HW2 3351   0.243   5.547   2.500
  838SOL     MW 3352   0.260   5.520   2.581
  839SOL     OW 3353   4.048   2.067   5.889
  839SOL    HW1 3354   3.986   2.125   5.844
  839SOL    HW2 3355   4.046   1.987   5.838
  839SOL     MW 3356   4.040   2.064   5.878
  840SOL     OW 3357   2.381   5.094   4.977
  840SOL    HW1 3358   2.289   5.118   4.992
  840SOL    HW2 3359   2.385   5.002   5.002
  840SOL     MW 3360   2.370   5.086   4.981
  841SOL     OW 3361   4.888   4.445   1.062
  841SOL    HW1 3362   4.810   4.453   1.005
  841SOL    HW2 3363   4.961   4.441   1.002
  841SOL     MW 3364   4.887   4.446   1.048
  842SOL     OW 3365   1.019   2.654   4.774
  842SOL    HW1 3366   1.031   2.618   4.686
  842SOL    HW2 3367   0.925   2.664   4.782
  842SOL     MW 3368   1.009   2.651   4.764
  843SOL     OW 3369   2.237   2.948   0.659
  843SOL    HW1 3370   2.254   3.026   0.606
  843SOL    HW2 3371   2.222   2.982   0.747
  843SOL     MW 3372   2.237   2.961   0.663
  844SOL     OW 3373   0.887   0.389   3.475
  844SOL    HW1 3374   0.937   0.361   3.398
  844SOL    HW2 3375   0.897   0.317   3.536
  844SOL     MW 3376   0.894   0.377   3.473
  845SOL     OW 3377   1.229   0.030   4.583
  845SOL    HW1 3378   1.310   0.075   4.559
  845SOL    HW2 3379   1.231   0.025   4.678
  845SOL     MW 3380   1.239   0.035   4.591
  846SOL     OW 3381   4.000   3.166   2.598
  846SOL    HW1 3382   4.024   3.209   2.680
  846SOL    HW2 3383   3.970   3.080   2.624
  846SOL     MW 3384   3.999   3.161   2.611
  847SOL     OW 3385   1.101   5.928   6.036
  847SOL    HW1 3386   1.121   5.892   5.949
  847SOL    HW2 3387   1.009   5.911   6.047
  847SOL     MW 3388   1.093   5.921   6.027
  848SOL     OW 3389   2.820   1.984   2.529
  848SOL    HW1 3390   2.905   2.030   2.529
  848SOL    HW2 3391   2.770   2.028   2.462
  848SOL     MW 3392   2.825   1.995   2.521
  849SOL     OW 3393   1.292   0.479   4.003
  849SOL    HW1 3394   1.273   0.397   3.955
  849SOL    HW2 3395   1.307   0.450   4.092
  849SOL     MW 3396   1.291   0.465   4.008
  850SOL     OW 3397   5.752   1.805   3.470
  850SOL    HW1 3398   5.739   1.751   3.391
  850SOL    HW2 3399   5.779   1.890   3.436
  850SOL     MW 3400   5.754   1.809   3.456
  851SOL     OW 3401   2.007   2.038   2.451
  851SOL    HW1 3402   1.918   2.072   2.461
  851SOL    HW2 3403   2.008   1.959   2.504
  851SOL     MW 3404   1.996   2.033   2.458
  852SOL     OW 3405   5.193   4.526   6.083
  852SOL    HW1 3406   5.144   4.587   6.026
  852SOL    HW2 3407   5.284   4.540   6.058
  852SOL     MW 3408   5.198   4.536   6.073
  853SOL     OW 3409   1.333   2.156   3.233
  853SOL    HW1 3410   1.328   2.247   3.203
  853SOL    HW2 3411   1.340   2.163   3.328
  853SOL     MW 3412   1.333   2.168   3.241
  854SOL     OW 3413   5.523   3.620   4.878
  854SOL    HW1 3414   5.605   3.626   4.828
  854SOL    HW2 3415   5.517   3.703   4.923
  854SOL     MW 3416   5.532   3.631   4.877
  855SOL     OW 3417   2.425   2.208   3.935
  855SOL    HW1 3418   2.395   2.242   4.019
  855SOL    HW2 3419   2.465   2.283   3.892
  855SOL     MW 3420   2.426   2.221   3.940
  856SOL     OW 3421   3.186   0.683   2.799
  856SOL    HW1 3422   3.278   0.673   2.825
  856SOL    HW2 3423   3.137   0.676   2.881
  856SOL     MW 3424   3.191   0.681   2.812
  857SOL     OW 3425   5.110   5.032   4.265
  857SOL    HW1 3426   5.158   4.957   4.227
  857SOL    HW2 3427   5.109   5.096   4.195
  857SOL     MW 3428   5.116   5.030   4.252
  858SOL     OW 3429   5.441   4.141   5.525
  858SOL    HW1 3430   5.530   4.116   5.495
  858SOL    HW2 3431   5.449   4.149   5.619
  858SOL     MW 3432   5.453   4.139   5.532
  859SOL     OW 3433   5.331   2.025   5.053
  859SOL    HW1 3434   5.311   2.106   5.101
  859SOL    HW2 3435   5.393   2.053   4.987
  859SOL     MW 3436   5.336   2.038   5.051
  860SOL     OW 3437   4.930   4.754   5.334
  860SOL    HW1 3438   4.857   4.726   5.278
  860SOL    HW2 3439   4.890   4.813   5.396
  860SOL     MW 3440   4.916   4.758   5.334
  861SOL     OW 3441   3.374   2.550   4.842
  861SOL    HW1 3442   3.439   2.487   4.874
  861SOL    HW2 3443   3.378   2.542   4.747
  861SOL     MW 3444   3.382   2.542   4.835
  862SOL     OW 3445   0.305   5.843   3.140
  862SOL    HW1 3446   0.276   5.934   3.136
  862SOL    HW2 3447   0.356   5.830   3.061
  862SOL     MW 3448   0.308   5.852   3.130
  863SOL     OW 3449   2.786   0.835   5.604
  863SOL    HW1 3450   2.801   0.746   5.572
  863SOL    HW2 3451   2.840   0.842   5.682
  863SOL     MW 3452   2.794   0.825   5.610
  864SOL     OW 3453   1.061   4.568   4.217
  864SOL    HW1 3454   1.087   4.654   4.252
  864SOL    HW2 3455   0.967   4.564   4.232
  864SOL     MW 3456   1.053   4.578   4.223
  865SOL     OW 3457   3.103   1.065   1.294
  865SOL    HW1 3458   3.148   1.015   1.363
  865SOL    HW2 3459   3.018   1.023   1.286
  865SOL     MW 3460   3.098   1.054   1.302
  866SOL     OW 3461   0.102   1.554   3.607
  866SOL    HW1 3462   0.125   1.460   3.604
  866SOL    HW2 3463   0.063   1.570   3.522
  866SOL     MW 3464   0.100   1.544   3.596
  867SOL     OW 3465   2.255   1.823   4.014
  867SOL    HW1 3466   2.191   1.805   3.945
  867SOL    HW2 3467   2.212   1.795   4.094
  867SOL     MW 3468   2.242   1.818   4.015
  868SOL     OW 3469   0.713   4.527   3.908
  868SOL    HW1 3470   0.709   4.431   3.896
  868SOL    HW2 3471   0.775   4.556   3.842
  868SOL     MW 3472   0.720   4.518   3.899
  869SOL     OW 3473   3.721   1.580   1.275
  869SOL    HW1 3474   3.757   1.542   1.194
  869SOL    HW2 3475   3.774   1.658   1.290
  869SOL     MW 3476   3.732   1.585   1.267
  870SOL     OW 3477   4.141   0.539   4.225
  870SOL    HW1 3478   4.230   0.502   4.225
  870SOL    HW2 3479   4.127   0.566   4.135
  870SOL     MW 3480   4.150   0.538   4.214
  871SOL     OW 3481   5.414   5.304   0.781
  871SOL    HW1 3482   5.421   5.370   0.850
  871SOL    HW2 3483   5.440   5.349   0.702
  871SOL     MW 3484   5.418   5.317   0.780
  872SOL     OW 3485   1.771   3.430   4.190
  872SOL    HW1 3486   1.763   3.525   4.196
  872SOL    HW2 3487   1.774   3.400   4.280
  872SOL     MW 3488   1.770   3.438   4.201
  873SOL     OW 3489   0.493   4.339   0.718
  873SOL    HW1 3490   0.422   4.326   0.654
  873SOL    HW2 3491   0.451   4.386   0.789
  873SOL     MW 3492   0.479   4.343   0.718
  874SOL     OW 3493   1.390   3.781   3.059
  874SOL    HW1 3494   1.368   3.837   2.984
  874SOL    HW2 3495   1.306   3.757   3.097
  874SOL     MW 3496   1.378   3.785   3.055
  875SOL     OW 3497   5.265   2.576   5.411
  875SOL    HW1 3498   5.329   2.644   5.391
  875SOL    HW2 3499   5.223   2.606   5.490
  875SOL     MW 3500   5.268   2.588   5.418
  876SOL     OW 3501   1.915   3.195   4.015
  876SOL    HW1 3502   1.954   3.278   3.988
  876SOL    HW2 3503   1.939   3.186   4.107
  876SOL     MW 3504   1.922   3.204   4.023
  877SOL     OW 3505   2.394   4.105   5.390
  877SOL    HW1 3506   2.393   4.021   5.344
  877SOL    HW2 3507   2.459   4.093   5.459
  877SOL     MW 3508   2.402   4.093   5.393
  878SOL     OW 3509   2.328   5.949   3.463
  878SOL    HW1 3510   2.283   5.864   3.463
  878SOL    HW2 3511   2.265   6.009   3.499
  878SOL     MW 3512   2.315   5.945   3.467
  879SOL     OW 3513   0.359   2.844   0.080
  879SOL    HW1 3514   0.437   2.830   0.133
  879SOL    HW2 3515   0.387   2.903   0.011
  879SOL     MW 3516   0.372   2.849   0.078
  880SOL     OW 3517   4.035   2.389   1.414
  880SOL    HW1 3518   3.951   2.421   1.381
  880SOL    HW2 3519   4.025   2.389   1.508
  880SOL     MW 3520   4.024   2.393   1.421
  881SOL     OW 3521   2.715   1.860   0.801
  881SOL    HW1 3522   2.757   1.945   0.816
  881SOL    HW2 3523   2.628   1.870   0.838
  881SOL     MW 3524   2.710   1.872   0.807
  882SOL     OW 3525   0.074   0.847   4.811
  882SOL    HW1 3526   0.003   0.905   4.781
  882SOL    HW2 3527   0.144   0.907   4.834
  882SOL     MW 3528   0.074   0.861   4.810
  883SOL     OW 3529   1.823   4.357   2.825
  883SOL    HW1 3530   1.901   4.408   2.849
  883SOL    HW2 3531   1.839   4.332   2.735
  883SOL     MW 3532   1.834   4.360   2.817
  884SOL     OW 3533   5.642   2.800   4.290
  884SOL    HW1 3534   5.604   2.877   4.246
  884SOL    HW2 3535   5.579   2.731   4.275
  884SOL     MW 3536   5.630   2.801   4.283
  885SOL     OW 3537   2.624   4.523   5.842
  885SOL    HW1 3538   2.703   4.472   5.821
  885SOL    HW2 3539   2.594   4.485   5.924
  885SOL     MW 3540   2.630   4.512   5.849
  886SOL     OW 3541   0.263   4.202   5.254
  886SOL    HW1 3542   0.351   4.205   5.215
  886SOL    HW2 3543   0.267   4.128   5.314
  886SOL     MW 3544   0.274   4.194   5.257
  887SOL     OW 3545   4.627   0.380   0.140
  887SOL    HW1 3546   4.647   0.474   0.151
  887SOL    HW2 3547   4.614   0.370   0.046
  887SOL     MW 3548   4.628   0.390   0.130
  888SOL     OW 3549   2.556   0.572   2.950
  888SOL    HW1 3550   2.554   0.490   2.899
  888SOL    HW2 3551   2.575   0.544   3.039
  888SOL     MW 3552   2.558   0.559   2.955
  889SOL     OW 3553   1.321   2.045   2.542
  889SOL    HW1 3554   1.294   2.006   2.626
  889SOL    HW2 3555   1.302   1.978   2.478
  889SOL     MW 3556   1.316   2.032   2.545
  890SOL     OW 3557   1.782   4.965   4.415
  890SOL    HW1 3558   1.796   4.870   4.423
  890SOL    HW2 3559   1.775   4.995   4.505
  890SOL     MW 3560   1.783   4.957   4.427
  891SOL     OW 3561   1.458   2.323   3.133
  891SOL    HW1 3562   1.404   2.263   3.081
  891SOL    HW2 3563   1.547   2.293   3.119
  891SOL     MW 3564   1.462   2.312   3.125
  892SOL     OW 3565   5.604   5.536   4.760
  892SOL    HW1 3566   5.677   5.483   4.794
  892SOL    HW2 3567   5.615   5.534   4.666
  892SOL     MW 3568   5.614   5.529   4.753
  893SOL     OW 3569   1.118   4.995   1.838
  893SOL    HW1 3570   1.092   4.930   1.772
  893SOL    HW2 3571   1.051   4.988   1.904
  893SOL     MW 3572   1.107   4.986   1.838
  894SOL     OW 3573   2.543   1.262   0.204
  894SOL    HW1 3574   2.522   1.185   0.257
  894SOL    HW2 3575   2.540   1.231   0.114
  894SOL     MW 3576   2.540   1.249   0.200
  895SOL     OW 3577   0.507   3.105   4.534
  895SOL    HW1 3578   0.454   3.149   4.467
  895SOL    HW2 3579   0.455   3.111   4.613
  895SOL     MW 3580   0.495   3.111   4.535
  896SOL     OW 3581   5.686   5.987   5.013
  896SOL    HW1 3582   5.625   6.033   4.955
  896SOL    HW2 3583   5.768   6.034   5.002
  896SOL     MW 3584   5.688   5.998   5.004
  897SOL     OW 3585   5.940   1.118   2.536
  897SOL    HW1 3586   5.893   1.190   2.579
  897SOL    HW2 3587   5.934   1.138   2.444
  897SOL     MW 3588   5.934   1.129   2.531
  898SOL     OW 3589   5.954   1.964   2.086
  898SOL    HW1 3590   6.006   1.905   2.142
  898SOL    HW2 3591   5.946   1.917   2.004
  898SOL     MW 3592   5.960   1.952   2.083
  899SOL     OW 3593   2.227   0.514   5.306
  899SOL    HW1 3594   2.147   0.566   5.288
  899SOL    HW2 3595   2.264   0.555   5.383
  899SOL     MW 3596   2.221   0.525   5.313
  900SOL     OW 3597   1.758   2.716   1.500
  900SOL    HW1 3598   1.775   2.778   1.571
  900SOL    HW2 3599   1.741   2.634   1.545
  900SOL     MW 3600   1.758   2.714   1.514
  901SOL     OW 3601   1.272   4.288   5.725
  901SOL    HW1 3602   1.205   4.348   5.691
  901SOL    HW2 3603   1.226   4.234   5.788
  901SOL     MW 3604   1.258   4.289   5.728
  902SOL     OW 3605   1.034   0.236   1.016
  902SOL    HW1 3606   1.124   0.271   1.011
  902SOL    HW2 3607   1.015   0.232   1.108
  902SOL     MW 3608   1.043   0.240   1.026
  903SOL     OW 3609   5.287   2.205   0.719
  903SOL    HW1 3610   5.296   2.298   0.697
  903SOL    HW2 3611   5.258   2.205   0.810
  903SOL     MW 3612   5.285   2.216   0.727
  904SOL     OW 3613   2.958   4.625   3.099
  904SOL    HW1 3614   2.950   4.689   3.028
  904SOL    HW2 3615   2.877   4.575   3.096
  904SOL     MW 3616   2.947   4.627   3.090
  905SOL     OW 3617   3.771   4.017   4.943
  905SOL    HW1 3618   3.676   4.012   4.926
  905SOL    HW2 3619   3.810   3.984   4.863
  905SOL     MW 3620   3.764   4.013   4.931
  906SOL     OW 3621   5.744   2.142   0.167
  906SOL    HW1 3622   5.681   2.070   0.179
  906SOL    HW2 3623   5.731   2.170   0.078
  906SOL     MW 3624   5.735   2.136   0.158
  907SOL     OW 3625   2.072   0.931   2.799
  907SOL    HW1 3626   2.057   0.887   2.884
  907SOL    HW2 3627   2.155   0.896   2.769
  907SOL     MW 3628   2.080   0.922   2.806
  908SOL     OW 3629   4.020   1.394   4.306
  908SOL    HW1 3630   4.009   1.384   4.401
  908SOL    HW2 3631   4.103   1.350   4.288
  908SOL     MW 3632   4.029   1.387   4.315
  909SOL     OW 3633   0.269   1.048   5.316
  909SOL    HW1 3634   0.251   1.113   5.385
  909SOL    HW2 3635   0.270   1.099   5.236
  909SOL     MW 3636   0.267   1.062   5.315
  910SOL     OW 3637   1.404   0.305   0.061
  910SOL    HW1 3638   1.315   0.340   0.055
  910SOL    HW2 3639   1.410   0.270   0.149
  910SOL     MW 3640   1.394   0.305   0.071
  911SOL     OW 3641   1.552   4.466   3.707
  911SOL    HW1 3642   1.525   4.374   3.701
  911SOL    HW2 3643   1.638   4.468   3.666
  911SOL     MW 3644   1.559   4.455   3.701
  912SOL     OW 3645   0.311   4.082   0.016
  912SOL    HW1 3646   0.338   4.171   0.041
  912SOL    HW2 3647   0.369   4.060  -0.056
  912SOL     MW 3648   0.321   4.090   0.011
  913SOL     OW 3649   2.576   0.605   5.674
  913SOL    HW1 3650   2.542   0.546   5.607
  913SOL    HW2 3651   2.599   0.684   5.626
  913SOL     MW 3652   2.575   0.607   5.660
  914SOL     OW 3653   4.464   3.631   2.745
  914SOL    HW1 3654   4.497   3.615   2.656
  914SOL    HW2 3655   4.416   3.553   2.766
  914SOL     MW 3656   4.462   3.620   2.736
  915SOL     OW 3657   4.425   3.736   0.783
  915SOL    HW1 3658   4.449   3.708   0.872
  915SOL    HW2 3659   4.407   3.655   0.738
  915SOL     MW 3660   4.425   3.723   0.789
  916SOL     OW 3661   5.229   3.803   0.494
  916SOL    HW1 3662   5.232   3.871   0.426
  916SOL    HW2 3663   5.290   3.833   0.560
  916SOL     MW 3664   5.236   3.815   0.494
  917SOL     OW 3665   6.020   3.319   5.674
  917SOL    HW1 3666   5.959   3.352   5.741
  917SOL    HW2 3667   6.050   3.236   5.708
  917SOL     MW 3668   6.016   3.313   5.686
  918SOL     OW 3669   2.733   2.403   3.108
  918SOL    HW1 3670   2.755   2.406   3.015
  918SOL    HW2 3671   2.747   2.312   3.133
  918SOL     MW 3672   2.737   2.393   3.100
  919SOL     OW 3673   2.281   3.008   6.083
  919SOL    HW1 3674   2.274   3.064   6.161
  919SOL    HW2 3675   2.339   3.056   6.025
  919SOL     MW 3676   2.287   3.020   6.086
  920SOL     OW 3677   0.123   2.448   1.289
  920SOL    HW1 3678   0.142   2.465   1.382
  920SOL    HW2 3679   0.205   2.466   1.245
  920SOL     MW 3680   0.135   2.452   1.295
  921SOL     OW 3681   4.818   3.271   4.184
  921SOL    HW1 3682   4.903   3.284   4.140
  921SOL    HW2 3683   4.840   3.264   4.276
  921SOL     MW 3684   4.831   3.272   4.189
  922SOL     OW 3685   0.422   5.503   4.407
  922SOL    HW1 3686   0.508   5.474   4.438
  922SOL    HW2 3687   0.361   5.465   4.470
  922SOL     MW 3688   0.425   5.495   4.418
  923SOL     OW 3689   0.111   5.923   0.553
  923SOL    HW1 3690   0.111   5.968   0.468
  923SOL    HW2 3691   0.116   5.994   0.616
  923SOL     MW 3692   0.112   5.937   0.550
  924SOL     OW 3693   5.182   2.771   2.712
  924SOL    HW1 3694   5.182   2.848   2.771
  924SOL    HW2 3695   5.174   2.809   2.625
  924SOL     MW 3696   5.181   2.785   2.709
  925SOL     OW 3697   5.320   1.601   2.143
  925SOL    HW1 3698   5.259   1.587   2.216
  925SOL    HW2 3699   5.284   1.550   2.072
  925SOL     MW 3700   5.308   1.594   2.144
  926SOL     OW 3701   4.372   0.426   4.615
  926SOL    HW1 3702   4.322   0.346   4.637
  926SOL    HW2 3703   4.307   0.495   4.621
  926SOL     MW 3704   4.358   0.424   4.619
  927SOL     OW 3705   0.763   4.431   1.939
  927SOL    HW1 3706   0.698   4.500   1.950
  927SOL    HW2 3707   0.805   4.451   1.856
  927SOL     MW 3708   0.760   4.442   1.930
  928SOL     OW 3709   2.440   0.808   3.717
  928SOL    HW1 3710   2.473   0.868   3.785
  928SOL    HW2 3711   2.495   0.731   3.725
  928SOL     MW 3712   2.451   0.806   3.726
  929SOL     OW 3713   0.915   4.404   1.683
  929SOL    HW1 3714   1.006   4.377   1.665
  929SOL    HW2 3715   0.913   4.421   1.776
  929SOL     MW 3716   0.926   4.402   1.692
  930SOL     OW 3717   1.431   2.955   1.452
  930SOL    HW1 3718   1.403   2.902   1.376
  930SOL    HW2 3719   1.525   2.954   1.447
  930SOL     MW 3720   1.438   2.949   1.442
  931SOL     OW 3721   5.343   3.015   0.623
  931SOL    HW1 3722   5.386   3.063   0.694
  931SOL    HW2 3723   5.306   2.939   0.666
  931SOL     MW 3724   5.344   3.012   0.637
  932SOL     OW 3725   4.800   1.253   4.650
  932SOL    HW1 3726   4.883   1.302   4.645
  932SOL    HW2 3727   4.756   1.291   4.725
  932SOL     MW 3728   4.805   1.264   4.658
  933SOL     OW 3729   3.429   0.503   1.010
  933SOL    HW1 3730   3.445   0.555   1.089
  933SOL    HW2 3731   3.515   0.490   0.972
  933SOL     MW 3732   3.441   0.507   1.015
  934SOL     OW 3733   5.225   2.543   0.165
  934SOL    HW1 3734   5.297   2.539   0.229
  934SOL    HW2 3735   5.268   2.528   0.082
  934SOL     MW 3736   5.239   2.540   0.163
  935SOL     OW 3737   4.070   1.508   2.654
  935SOL    HW1 3738   4.129   1.441   2.619
  935SOL    HW2 3739   4.097   1.518   2.744
  935SOL     MW 3740   4.080   1.501   2.660
  936SOL     OW 3741   0.724   6.069   3.902
  936SOL    HW1 3742   0.785   6.029   3.965
  936SOL    HW2 3743   0.767   6.059   3.818
  936SOL     MW 3744   0.737   6.063   3.900
  937SOL     OW 3745   1.082   4.358   2.928
  937SOL    HW1 3746   1.022   4.401   2.866
  937SOL    HW2 3747   1.168   4.375   2.892
  937SOL     MW 3748   1.085   4.365   2.916
  938SOL     OW 3749   3.380   4.115   4.806
  938SOL    HW1 3750   3.330   4.061   4.867
  938SOL    HW2 3751   3.431   4.052   4.755
  938SOL     MW 3752   3.380   4.101   4.807
  939SOL     OW 3753   5.157   2.125   3.115
  939SOL    HW1 3754   5.238   2.132   3.063
  939SOL    HW2 3755   5.114   2.208   3.101
  939SOL     MW 3756   5.162   2.136   3.107
  940SOL     OW 3757   3.642   4.487   5.823
  940SOL    HW1 3758   3.729   4.471   5.860
  940SOL    HW2 3759   3.660   4.533   5.741
  940SOL     MW 3760   3.655   4.491   5.818
  941SOL     OW 3761   0.891   0.092   4.479
  941SOL    HW1 3762   0.938   0.137   4.408
  941SOL    HW2 3763   0.801   0.121   4.470
  941SOL     MW 3764   0.886   0.101   4.469
  942SOL     OW 3765   5.162   2.604   2.754
  942SOL    HW1 3766   5.143   2.518   2.715
  942SOL    HW2 3767   5.197   2.584   2.839
  942SOL     MW 3768   5.164   2.591   2.759
  943SOL     OW 3769   6.040   5.361   5.733
  943SOL    HW1 3770   6.048   5.428   5.801
  943SOL    HW2 3771   6.042   5.278   5.780
  943SOL     MW 3772   6.041   5.359   5.747
  944SOL     OW 3773   1.046   1.578   2.157
  944SOL    HW1 3774   0.991   1.579   2.236
  944SOL    HW2 3775   1.128   1.540   2.186
  944SOL     MW 3776   1.049   1.573   2.170
  945SOL     OW 3777   5.652   2.187   3.112
  945SOL    HW1 3778   5.705   2.107   3.125
  945SOL    HW2 3779   5.641   2.192   3.018
  945SOL     MW 3780   5.657   2.178   3.103
  946SOL     OW 3781   0.769   2.311   4.543
  946SOL    HW1 3782   0.813   2.387   4.504
  946SOL    HW2 3783   0.775   2.325   4.636
  946SOL     MW 3784   0.775   2.322   4.549
  947SOL     OW 3785   2.572   0.244   3.170
  947SOL    HW1 3786   2.582   0.165   3.225
  947SOL    HW2 3787   2.632   0.307   3.208
  947SOL     MW 3788   2.581   0.241   3.181
  948SOL     OW 3789   1.535   4.637   4.966
  948SOL    HW1 3790   1.512   4.583   4.890
  948SOL    HW2 3791   1.505   4.586   5.040
  948SOL     MW 3792   1.529   4.624   4.966
  949SOL     OW 3793   4.467   5.973   2.187
  949SOL    HW1 3794   4.519   5.892   2.180
  949SOL    HW2 3795   4.524   6.033   2.232
  949SOL     MW 3796   4.480   5.970   2.191
  950SOL     OW 3797   4.849   3.624   0.781
  950SOL    HW1 3798   4.860   3.645   0.687
  950SOL    HW2 3799   4.802   3.542   0.781
  950SOL     MW 3800   4.845   3.617   0.769
  951SOL     OW 3801   5.529   2.915   5.986
  951SOL    HW1 3802   5.612   2.921   6.033
  951SOL    HW2 3803   5.545   2.958   5.904
  951SOL     MW 3804   5.541   2.921   5.982
  952SOL     OW 3805   0.089   1.420   3.029
  952SOL    HW1 3806   0.067   1.392   2.940
  952SOL    HW2 3807   0.113   1.512   3.020
  952SOL     MW 3808   0.089   1.428   3.017
  953SOL     OW 3809   4.371   1.059   3.900
  953SOL    HW1 3810   4.295   1.090   3.951
  953SOL    HW2 3811   4.334   1.035   3.816
  953SOL     MW 3812   4.357   1.060   3.896
  954SOL     OW 3813   4.635   5.243   5.943
  954SOL    HW1 3814   4.622   5.153   5.910
  954SOL    HW2 3815   4.608   5.299   5.872
  954SOL     MW 3816   4.630   5.238   5.931
  955SOL     OW 3817   2.591   4.942   5.493
  955SOL    HW1 3818   2.647   4.957   5.416
  955SOL    HW2 3819   2.513   4.993   5.475
  955SOL     MW 3820   2.588   4.950   5.481
  956SOL     OW 3821   5.145   5.772   3.294
  956SOL    HW1 3822   5.076   5.833   3.265
  956SOL    HW2 3823   5.096   5.700   3.334
  956SOL     MW 3824   5.130   5.771   3.295
  957SOL     OW 3825   1.749   5.105   2.046
  957SOL    HW1 3826   1.715   5.178   2.098
  957SOL    HW2 3827   1.835   5.133   2.018
  957SOL     MW 3828   1.755   5.117   2.049
  958SOL     OW 3829   3.138   4.155   0.731
  958SOL    HW1 3830   3.197   4.210   0.783
  958SOL    HW2 3831   3.170   4.067   0.745
  958SOL     MW 3832   3.149   4.151   0.739
  959SOL     OW 3833   0.817   0.644   3.426
  959SOL    HW1 3834   0.855   0.657   3.339
  959SOL    HW2 3835   0.751   0.712   3.434
  959SOL     MW 3836   0.813   0.653   3.416
  960SOL     OW 3837   5.830   4.238   2.710
  960SOL    HW1 3838   5.872   4.161   2.749
  960SOL    HW2 3839   5.840   4.225   2.616
  960SOL     MW 3840   5.836   4.227   2.703
  961SOL     OW 3841   3.477   3.963   5.171
  961SOL    HW1 3842   3.456   3.901   5.242
  961SOL    HW2 3843   3.470   3.910   5.092
  961SOL     MW 3844   3.474   3.949   5.170
  962SOL     OW 3845   1.143   0.795   1.420
  962SOL    HW1 3846   1.063   0.847   1.431
  962SOL    HW2 3847   1.130   0.721   1.478
  962SOL     MW 3848   1.132   0.792   1.428
  963SOL     OW 3849   4.100   5.590   1.360
  963SOL    HW1 3850   4.160   5.524   1.324
  963SOL    HW2 3851   4.102   5.575   1.453
  963SOL     MW 3852   4.108   5.580   1.366
  964SOL     OW 3853   0.881   1.603   0.501
  964SOL    HW1 3854   0.898   1.681   0.447
  964SOL    HW2 3855   0.844   1.540   0.441
  964SOL     MW 3856   0.879   1.605   0.488
  965SOL     OW 3857   3.290   0.031   6.051
  965SOL    HW1 3858   3.199   0.033   6.083
  965SOL    HW2 3859   3.306   0.120   6.022
  965SOL     MW 3860   3.281   0.042   6.052
  966SOL     OW 3861   1.577   5.410   1.072
  966SOL    HW1 3862   1.610   5.345   1.009
  966SOL    HW2 3863   1.575   5.364   1.154
  966SOL     MW 3864   1.581   5.397   1.074
  967SOL     OW 3865   0.464   0.312   0.035
  967SOL    HW1 3866   0.402   0.360   0.091
  967SOL    HW2 3867   0.546   0.358   0.046
  967SOL     MW 3868   0.466   0.323   0.043
  968SOL     OW 3869   6.013   0.237   4.051
  968SOL    HW1 3870   5.937   0.295   4.039
  968SOL    HW2 3871   6.059   0.274   4.125
  968SOL     MW 3872   6.009   0.249   4.058
  969SOL     OW 3873   2.777   3.713   2.486
  969SOL    HW1 3874   2.768   3.797   2.533
  969SOL    HW2 3875   2.689   3.695   2.455
  969SOL     MW 3876   2.765   3.721   2.488
  970SOL     OW 3877   5.013   1.853   5.983
  970SOL    HW1 3878   5.073   1.819   5.916
  970SOL    HW2 3879   5.051   1.824   6.065
  970SOL     MW 3880   5.025   1.845   5.985
  971SOL     OW 3881   1.378   5.772   5.639
  971SOL    HW1 3882   1.347   5.690   5.600
  971SOL    HW2 3883   1.468   5.779   5.609
  971SOL     MW 3884   1.385   5.763   5.631
  972SOL     OW 3885   4.803   1.313   5.831
  972SOL    HW1 3886   4.707   1.307   5.825
  972SOL    HW2 3887   4.832   1.311   5.741
  972SOL     MW 3888   4.794   1.312   5.819
  973SOL     OW 3889   0.309   3.801   4.836
  973SOL    HW1 3890   0.368   3.725   4.830
  973SOL    HW2 3891   0.230   3.772   4.792
  973SOL     MW 3892   0.307   3.788   4.830
  974SOL     OW 3893   2.484   2.158   1.813
  974SOL    HW1 3894   2.405   2.209   1.793
  974SOL    HW2 3895   2.471   2.130   1.903
  974SOL     MW 3896   2.473   2.161   1.821
  975SOL     OW 3897   5.046   4.396   5.277
  975SOL    HW1 3898   5.046   4.492   5.274
  975SOL    HW2 3899   4.968   4.371   5.230
  975SOL     MW 3900   5.037   4.405   5.271
  976SOL     OW 3901   1.069   0.501   3.997
  976SOL    HW1 3902   1.052   0.414   3.960
  976SOL    HW2 3903   1.089   0.484   4.088
  976SOL     MW 3904   1.069   0.488   4.003
  977SOL     OW 3905   3.964   0.043   0.207
  977SOL    HW1 3906   4.010   0.077   0.285
  977SOL    HW2 3907   4.004   0.089   0.135
  977SOL     MW 3908   3.974   0.053   0.208
  978SOL     OW 3909   3.898   5.667   3.629
  978SOL    HW1 3910   3.992   5.655   3.642
  978SOL    HW2 3911   3.886   5.664   3.535
  978SOL     MW 3912   3.908   5.665   3.619
  979SOL     OW 3913   3.789   1.604   0.145
  979SOL    HW1 3914   3.851   1.558   0.088
  979SOL    HW2 3915   3.705   1.568   0.122
  979SOL     MW 3916   3.787   1.594   0.135
  980SOL     OW 3917   3.237   4.487   5.702
  980SOL    HW1 3918   3.214   4.457   5.791
  980SOL    HW2 3919   3.300   4.556   5.717
  980SOL     MW 3920   3.242   4.491   5.715
  981SOL     OW 3921   0.518   3.762   1.627
  981SOL    HW1 3922   0.427   3.757   1.658
  981SOL    HW2 3923   0.511   3.771   1.533
  981SOL     MW 3924   0.506   3.762   1.620
  982SOL     OW 3925   1.368   1.411   1.840
  982SOL    HW1 3926   1.445   1.469   1.839
  982SOL    HW2 3927   1.308   1.452   1.901
  982SOL     MW 3928   1.370   1.423   1.847
  983SOL     OW 3929   2.589   3.149   3.049
  983SOL    HW1 3930   2.496   3.171   3.039
  983SOL    HW2 3931   2.604   3.082   2.983
  983SOL     MW 3932   2.579   3.144   3.039
  984SOL     OW 3933   0.707   5.617   1.737
  984SOL    HW1 3934   0.787   5.663   1.763
  984SOL    HW2 3935   0.732   5.525   1.733
  984SOL     MW 3936   0.720   5.611   1.739
  985SOL     OW 3937   3.374   4.543   0.513
  985SOL    HW1 3938   3.294   4.563   0.464
  985SOL    HW2 3939   3.352   4.465   0.563
  985SOL     MW 3940   3.362   4.536   0.513
  986SOL     OW 3941   0.385   2.321   5.039
  986SOL    HW1 3942   0.315   2.382   5.012
  986SOL    HW2 3943   0.449   2.377   5.082
  986SOL     MW 3944   0.384   2.335   5.041
  987SOL     OW 3945   2.030   0.473   0.224
  987SOL    HW1 3946   1.985   0.551   0.258
  987SOL    HW2 3947   2.121   0.500   0.216
  987SOL     MW 3948   2.035   0.485   0.227
  988SOL     OW 3949   1.666   5.216   6.023
  988SOL    HW1 3950   1.711   5.210   6.108
  988SOL    HW2 3951   1.657   5.126   5.996
  988SOL     MW 3952   1.671   5.204   6.030
  989SOL     OW 3953   1.326   5.183   3.774
  989SOL    HW1 3954   1.405   5.219   3.732
  989SOL    HW2 3955   1.346   5.091   3.784
  989SOL     MW 3956   1.338   5.176   3.770
  990SOL     OW 3957   2.421   1.894   0.277
  990SOL    HW1 3958   2.336   1.853   0.295
  990SOL    HW2 3959   2.400   1.982   0.249
  990SOL     MW 3960   2.408   1.899   0.276
  991SOL     OW 3961   5.940   4.187   3.444
  991SOL    HW1 3962   5.972   4.226   3.526
  991SOL    HW2 3963   5.870   4.244   3.417
  991SOL     MW 3964   5.936   4.198   3.451
  992SOL     OW 3965   2.172   4.904   3.023
  992SOL    HW1 3966   2.190   4.989   3.066
  992SOL    HW2 3967   2.129   4.853   3.090
  992SOL     MW 3968   2.169   4.908   3.036
  993SOL     OW 3969   0.621   1.073   5.522
  993SOL    HW1 3970   0.576   1.121   5.592
  993SOL    HW2 3971   0.591   0.983   5.533
  993SOL     MW 3972   0.612   1.068   5.532
  994SOL     OW 3973   0.662   4.793   0.426
  994SOL    HW1 3974   0.746   4.760   0.392
  994SOL    HW2 3975   0.674   4.795   0.520
  994SOL     MW 3976   0.674   4.789   0.433
  995SOL     OW 3977   5.530   5.220   5.849
  995SOL    HW1 3978   5.550   5.303   5.894
  995SOL    HW2 3979   5.606   5.203   5.796
  995SOL     MW 3980   5.541   5.228   5.848
  996SOL     OW 3981   1.264   1.339   5.195
  996SOL    HW1 3982   1.245   1.257   5.241
  996SOL    HW2 3983   1.254   1.318   5.103
  996SOL     MW 3984   1.261   1.327   5.190
  997SOL     OW 3985   1.139   2.284   4.907
  997SOL    HW1 3986   1.176   2.330   4.831
  997SOL    HW2 3987   1.091   2.212   4.869
  997SOL     MW 3988   1.138   2.281   4.893
  998SOL     OW 3989   3.487   2.253   5.417
  998SOL    HW1 3990   3.476   2.318   5.488
  998SOL    HW2 3991   3.573   2.272   5.381
  998SOL     MW 3992   3.496   2.263   5.421
  999SOL     OW 3993   2.695   5.881   3.715
  999SOL    HW1 3994   2.741   5.954   3.674
  999SOL    HW2 3995   2.699   5.899   3.808
  999SOL     MW 3996   2.701   5.892   3.721
 1000SOL     OW 3997   5.014   2.639   2.129
 1000SOL    HW1 3998   5.046   2.722   2.167
 1000SOL    HW2 3999   5.047   2.572   2.188
 1000SOL     MW 4000   5.022   2.641   2.141
 1001SOL     OW 4001   0.297   3.754   2.804
 1001SOL    HW1 4002   0.392   3.755   2.789
 1001SOL    HW2 4003   0.261   3.788   2.722
 1001SOL     MW 4004   0.304   3.758   2.792
 1002SOL     OW 4005   2.154   2.947   5.518
 1002SOL    HW1 4006   2.142   3.019   5.455
 1002SOL    HW2 4007   2.206   2.883   5.471
 1002SOL     MW 4008   2.159   2.948   5.505
 1003SOL     OW 4009   1.225   1.579   1.505
 1003SOL    HW1 4010   1.222   1.674   1.519
 1003SOL    HW2 4011   1.286   1.567   1.434
 1003SOL     MW 4012   1.232   1.589   1.498
 1004SOL     OW 4013   1.637   0.380   1.945
 1004SOL    HW1 4014   1.653   0.297   1.990
 1004SOL    HW2 4015   1.581   0.357   1.873
 1004SOL     MW 4016   1.633   0.367   1.942
 1005SOL     OW 4017   4.413   0.962   5.727
 1005SOL    HW1 4018   4.415   1.011   5.644
 1005SOL    HW2 4019   4.398   1.029   5.793
 1005SOL     MW 4020   4.411   0.976   5.725
 1006SOL     OW 4021   5.793   2.280   3.688
 1006SOL    HW1 4022   5.760   2.336   3.616
 1006SOL    HW2 4023   5.883   2.308   3.699
 1006SOL     MW 4024   5.799   2.291   3.680
 1007SOL     OW 4025   0.760   5.225   0.957
 1007SOL    HW1 4026   0.763   5.312   0.916
 1007SOL    HW2 4027   0.736   5.242   1.047
 1007SOL     MW 4028   0.758   5.238   0.963
 1008SOL     OW 4029   0.696   5.540   3.592
 1008SOL    HW1 4030   0.760   5.598   3.550
 1008SOL    HW2 4031   0.708   5.554   3.685
 1008SOL     MW 4032   0.705   5.549   3.597
 1009SOL     OW 4033   5.027   2.540   3.929
 1009SOL    HW1 4034   5.011   2.451   3.898
 1009SOL    HW2 4035   4.963   2.593   3.884
 1009SOL     MW 4036   5.017   2.536   3.920
 1010SOL     OW 4037   1.457   2.358   2.069
 1010SOL    HW1 4038   1.464   2.287   2.133
 1010SOL    HW2 4039   1.539   2.406   2.079
 1010SOL     MW 4040   1.468   2.355   2.078
 1011SOL     OW 4041   5.796   5.058   4.752
 1011SOL    HW1 4042   5.876   5.097   4.714
 1011SOL    HW2 4043   5.807   5.070   4.845
 1011SOL     MW 4044   5.807   5.064   4.758
 1012SOL     OW 4045   5.645   3.396   1.710
 1012SOL    HW1 4046   5.578   3.381   1.641
 1012SOL    HW2 4047   5.721   3.426   1.662
 1012SOL     MW 4048   5.645   3.397   1.696
 1013SOL     OW 4049   1.314   1.567   2.632
 1013SOL    HW1 4050   1.383   1.623   2.594
 1013SOL    HW2 4051   1.300   1.603   2.719
 1013SOL     MW 4052   1.321   1.578   2.638
 1014SOL     OW 4053   4.762   4.377   4.373
 1014SOL    HW1 4054   4.795   4.456   4.330
 1014SOL    HW2 4055   4.787   4.387   4.464
 1014SOL     MW 4056   4.769   4.388   4.378
 1015SOL     OW 4057   0.955   2.868   5.773
 1015SOL    HW1 4058   1.047   2.849   5.749
 1015SOL    HW2 4059   0.957   2.875   5.868
 1015SOL     MW 4060   0.967   2.867   5.781
 1016SOL     OW 4061   6.065   3.936   2.846
 1016SOL    HW1 4062   6.072   3.867   2.780
 1016SOL    HW2 4063   5.985   3.917   2.893
 1016SOL     MW 4064   6.057   3.925   2.844
 1017SOL     OW 4065   1.423   0.406   3.230
 1017SOL    HW1 4066   1.379   0.352   3.164
 1017SOL    HW2 4067   1.421   0.353   3.309
 1017SOL     MW 4068   1.418   0.393   3.231
 1018SOL     OW 4069   4.508   1.058   2.947
 1018SOL    HW1 4070   4.444   0.993   2.975
 1018SOL    HW2 4071   4.558   1.014   2.879
 1018SOL     MW 4072   4.506   1.045   2.942
 1019SOL     OW 4073   1.625   1.067   5.728
 1019SOL    HW1 4074   1.711   1.075   5.770
 1019SOL    HW2 4075   1.568   1.120   5.781
 1019SOL     MW 4076   1.629   1.074   5.739
 1020SOL     OW 4077   2.966   0.716   4.000
 1020SOL    HW1 4078   3.002   0.775   4.067
 1020SOL    HW2 4079   3.018   0.637   4.007
 1020SOL     MW 4080   2.976   0.714   4.009
 1021SOL     OW 4081   3.950   1.882   3.474
 1021SOL    HW1 4082   4.023   1.929   3.515
 1021SOL    HW2 4083   3.963   1.894   3.381
 1021SOL     MW 4084   3.961   1.889   3.468
 1022SOL     OW 4085   4.186   4.909   5.377
 1022SOL    HW1 4086   4.216   4.857   5.302
 1022SOL    HW2 4087   4.255   4.899   5.442
 1022SOL     MW 4088   4.198   4.902   5.375
 1023SOL     OW 4089   2.141   0.573   0.913
 1023SOL    HW1 4090   2.191   0.497   0.945
 1023SOL    HW2 4091   2.142   0.563   0.819
 1023SOL     MW 4092   2.147   0.563   0.906
 1024SOL     OW 4093   3.486   1.734   3.786
 1024SOL    HW1 4094   3.455   1.806   3.729
 1024SOL    HW2 4095   3.548   1.776   3.844
 1024SOL     MW 4096   3.490   1.748   3.786
 1025SOL     OW 4097   4.670   5.996   3.104
 1025SOL    HW1 4098   4.612   6.055   3.054
 1025SOL    HW2 4099   4.742   5.978   3.045
 1025SOL     MW 4100   4.672   6.001   3.091
 1026SOL     OW 4101   0.758   1.525   1.414
 1026SOL    HW1 4102   0.681   1.582   1.405
 1026SOL    HW2 4103   0.789   1.512   1.325
 1026SOL     MW 4104   0.753   1.530   1.403
 1027SOL     OW 4105   0.427   6.022   5.401
 1027SOL    HW1 4106   0.416   6.098   5.458
 1027SOL    HW2 4107   0.506   6.040   5.353
 1027SOL     MW 4108   0.435   6.033   5.402
 1028SOL     OW 4109   1.713   2.896   5.778
 1028SOL    HW1 4110   1.754   2.930   5.698
 1028SOL    HW2 4111   1.750   2.949   5.848
 1028SOL     MW 4112   1.722   2.907   5.777
 1029SOL     OW 4113   2.960   4.034   1.109
 1029SOL    HW1 4114   2.921   4.113   1.070
 1029SOL    HW2 4115   2.913   3.962   1.069
 1029SOL     MW 4116   2.950   4.035   1.100
 1030SOL     OW 4117   0.129   0.847   3.796
 1030SOL    HW1 4118   0.222   0.851   3.772
 1030SOL    HW2 4119   0.088   0.912   3.741
 1030SOL     MW 4120   0.135   0.855   3.786
 1031SOL     OW 4121   0.228   4.757   3.843
 1031SOL    HW1 4122   0.281   4.817   3.897
 1031SOL    HW2 4123   0.197   4.692   3.904
 1031SOL     MW 4124   0.231   4.757   3.857
 1032SOL     OW 4125   4.271   4.387   2.372
 1032SOL    HW1 4126   4.304   4.299   2.351
 1032SOL    HW2 4127   4.263   4.387   2.466
 1032SOL     MW 4128   4.274   4.376   2.380
 1033SOL     OW 4129   1.945   5.134   1.399
 1033SOL    HW1 4130   1.930   5.075   1.325
 1033SOL    HW2 4131   1.981   5.078   1.466
 1033SOL     MW 4132   1.947   5.120   1.398
 1034SOL     OW 4133   4.275   0.806   1.659
 1034SOL    HW1 4134   4.337   0.841   1.594
 1034SOL    HW2 4135   4.323   0.737   1.702
 1034SOL     MW 4136   4.288   0.802   1.656
 1035SOL     OW 4137   3.912   5.890   0.892
 1035SOL    HW1 4138   3.885   5.942   0.816
 1035SOL    HW2 4139   3.946   5.954   0.953
 1035SOL     MW 4140   3.913   5.904   0.890
 1036SOL     OW 4141   4.080   5.882   1.995
 1036SOL    HW1 4142   4.027   5.812   1.955
 1036SOL    HW2 4143   4.079   5.861   2.088
 1036SOL     MW 4144   4.073   5.871   2.001
 1037SOL     OW 4145   5.726   5.977   0.338
 1037SOL    HW1 4146   5.688   5.968   0.250
 1037SOL    HW2 4147   5.666   6.035   0.383
 1037SOL     MW 4148   5.714   5.982   0.333
 1038SOL     OW 4149   5.488   5.610   2.968
 1038SOL    HW1 4150   5.559   5.657   2.924
 1038SOL    HW2 4151   5.502   5.626   3.060
 1038SOL     MW 4152   5.498   5.618   2.973
 1039SOL     OW 4153   3.246   3.062   4.820
 1039SOL    HW1 4154   3.184   2.995   4.791
 1039SOL    HW2 4155   3.257   3.044   4.913
 1039SOL     MW 4156   3.240   3.051   4.828
 1040SOL     OW 4157   1.909   4.997   5.943
 1040SOL    HW1 4158   1.881   5.021   5.854
 1040SOL    HW2 4159   1.932   5.080   5.983
 1040SOL     MW 4160   1.909   5.010   5.937
 1041SOL     OW 4161   5.823   4.630   3.550
 1041SOL    HW1 4162   5.786   4.572   3.618
 1041SOL    HW2 4163   5.778   4.605   3.471
 1041SOL     MW 4164   5.813   4.620   3.549
 1042SOL     OW 4165   1.684   0.555   0.507
 1042SOL    HW1 4166   1.658   0.647   0.493
 1042SOL    HW2 4167   1.609   0.516   0.549
 1042SOL     MW 4168   1.672   0.562   0.510
 1043SOL     OW 4169   6.030   4.283   2.964
 1043SOL    HW1 4170   6.002   4.355   2.905
 1043SOL    HW2 4171   6.094   4.324   3.021
 1043SOL     MW 4172   6.034   4.297   2.963
 1044SOL     OW 4173   4.102   4.263   1.782
 1044SOL    HW1 4174   4.184   4.280   1.734
 1044SOL    HW2 4175   4.128   4.263   1.873
 1044SOL     MW 4176   4.115   4.265   1.787
 1045SOL     OW 4177   3.828   5.524   2.948
 1045SOL    HW1 4178   3.844   5.539   3.042
 1045SOL    HW2 4179   3.742   5.486   2.945
 1045SOL     MW 4180   3.820   5.521   2.959
 1046SOL     OW 4181   2.027   4.777   0.039
 1046SOL    HW1 4182   1.957   4.745  -0.019
 1046SOL    HW2 4183   2.030   4.870   0.022
 1046SOL     MW 4184   2.019   4.784   0.030
 1047SOL     OW 4185   3.939   5.300   2.911
 1047SOL    HW1 4186   4.008   5.249   2.955
 1047SOL    HW2 4187   3.949   5.279   2.820
 1047SOL     MW 4188   3.949   5.291   2.906
 1048SOL     OW 4189   5.327   1.196   5.885
 1048SOL    HW1 4190   5.288   1.210   5.798
 1048SOL    HW2 4191   5.349   1.284   5.914
 1048SOL     MW 4192   5.325   1.208   5.878
 1049SOL     OW 4193   1.567   3.618   0.018
 1049SOL    HW1 4194   1.608   3.664   0.092
 1049SOL    HW2 4195   1.529   3.688  -0.034
 1049SOL     MW 4196   1.567   3.632   0.021
 1050SOL     OW 4197   5.739   3.286   3.020
 1050SOL    HW1 4198   5.644   3.292   3.002
 1050SOL    HW2 4199   5.745   3.300   3.114
 1050SOL     MW 4200   5.728   3.288   3.029
 1051SOL     OW 4201   5.055   0.278   4.945
 1051SOL    HW1 4202   4.995   0.341   4.987
 1051SOL    HW2 4203   5.140   0.319   4.953
 1051SOL     MW 4204   5.058   0.291   4.952
 1052SOL     OW 4205   4.962   0.899   1.530
 1052SOL    HW1 4206   4.978   0.854   1.614
 1052SOL    HW2 4207   5.027   0.969   1.530
 1052SOL     MW 4208   4.972   0.902   1.541
 1053SOL     OW 4209   3.060   5.685   5.464
 1053SOL    HW1 4210   3.016   5.610   5.507
 1053SOL    HW2 4211   3.048   5.669   5.372
 1053SOL     MW 4212   3.053   5.674   5.459
 1054SOL     OW 4213   2.175   5.872   0.590
 1054SOL    HW1 4214   2.206   5.877   0.499
 1054SOL    HW2 4215   2.207   5.952   0.630
 1054SOL     MW 4216   2.183   5.882   0.583
 1055SOL     OW 4217   4.846   4.298   2.062
 1055SOL    HW1 4218   4.833   4.221   2.006
 1055SOL    HW2 4219   4.812   4.370   2.012
 1055SOL     MW 4220   4.840   4.297   2.049
 1056SOL     OW 4221   5.568   5.548   3.321
 1056SOL    HW1 4222   5.592   5.634   3.284
 1056SOL    HW2 4223   5.553   5.494   3.244
 1056SOL     MW 4224   5.570   5.552   3.307
 1057SOL     OW 4225   2.980   4.189   1.783
 1057SOL    HW1 4226   2.921   4.250   1.828
 1057SOL    HW2 4227   3.066   4.229   1.791
 1057SOL     MW 4228   2.983   4.201   1.790
 1058SOL     OW 4229   4.049   2.118   4.745
 1058SOL    HW1 4230   4.112   2.190   4.752
 1058SOL    HW2 4231   4.102   2.040   4.757
 1058SOL     MW 4232   4.063   2.117   4.747
 1059SOL     OW 4233   0.262   1.395   1.429
 1059SOL    HW1 4234   0.334   1.336   1.403
 1059SOL    HW2 4235   0.237   1.365   1.515
 1059SOL     MW 4236   0.268   1.385   1.436
 1060SOL     OW 4237   2.035   1.658   0.050
 1060SOL    HW1 4238   1.940   1.644   0.038
 1060SOL    HW2 4239   2.073   1.634  -0.033
 1060SOL     MW 4240   2.028   1.654   0.039
 1061SOL     OW 4241   6.027   0.945   2.401
 1061SOL    HW1 4242   6.076   0.872   2.362
 1061SOL    HW2 4243   6.042   0.937   2.494
 1061SOL     MW 4244   6.035   0.935   2.407
 1062SOL     OW 4245   0.554   1.800   4.088
 1062SOL    HW1 4246   0.630   1.764   4.135
 1062SOL    HW2 4247   0.592   1.852   4.019
 1062SOL     MW 4248   0.568   1.801   4.085
 1063SOL     OW 4249   4.651   1.512   5.467
 1063SOL    HW1 4250   4.669   1.420   5.490
 1063SOL    HW2 4251   4.627   1.553   5.549
 1063SOL     MW 4252   4.650   1.505   5.479
 1064SOL     OW 4253   0.408   2.111   2.745
 1064SOL    HW1 4254   0.349   2.174   2.787
 1064SOL    HW2 4255   0.435   2.155   2.665
 1064SOL     MW 4256   0.404   2.124   2.741
 1065SOL     OW 4257   3.435   5.335   4.265
 1065SOL    HW1 4258   3.516   5.298   4.230
 1065SOL    HW2 4259   3.454   5.350   4.357
 1065SOL     MW 4260   3.447   5.332   4.272
 1066SOL     OW 4261   4.086   0.966   2.648
 1066SOL    HW1 4262   4.111   0.883   2.690
 1066SOL    HW2 4263   4.073   0.944   2.557
 1066SOL     MW 4264   4.088   0.954   2.642
 1067SOL     OW 4265   5.293   2.900   4.069
 1067SOL    HW1 4266   5.377   2.869   4.033
 1067SOL    HW2 4267   5.306   2.899   4.163
 1067SOL     MW 4268   5.305   2.896   4.076
 1068SOL     OW 4269   3.484   1.248   1.314
 1068SOL    HW1 4270   3.521   1.334   1.292
 1068SOL    HW2 4271   3.403   1.243   1.265
 1068SOL     MW 4272   3.479   1.258   1.306
 1069SOL     OW 4273   0.053   4.819   1.614
 1069SOL    HW1 4274   0.024   4.746   1.668
 1069SOL    HW2 4275   0.145   4.829   1.635
 1069SOL     MW 4276   0.061   4.812   1.623
 1070SOL     OW 4277   2.947   1.114   2.595
 1070SOL    HW1 4278   3.038   1.083   2.587
 1070SOL    HW2 4279   2.919   1.124   2.505
 1070SOL     MW 4280   2.955   1.111   2.583
 1071SOL     OW 4281   1.247   5.183   5.248
 1071SOL    HW1 4282   1.186   5.124   5.203
 1071SOL    HW2 4283   1.248   5.153   5.338
 1071SOL     MW 4284   1.240   5.172   5.253
 1072SOL     OW 4285   5.094   0.122   2.749
 1072SOL    HW1 4286   5.158   0.162   2.810
 1072SOL    HW2 4287   5.084   0.187   2.680
 1072SOL     MW 4288   5.101   0.135   2.748
 1073SOL     OW 4289   1.183   1.615   3.103
 1073SOL    HW1 4290   1.259   1.565   3.071
 1073SOL    HW2 4291   1.179   1.594   3.196
 1073SOL     MW 4292   1.192   1.606   3.110
 1074SOL     OW 4293   5.691   1.661   6.023
 1074SOL    HW1 4294   5.690   1.751   6.057
 1074SOL    HW2 4295   5.692   1.672   5.928
 1074SOL     MW 4296   5.691   1.673   6.016
 1075SOL     OW 4297   3.032   5.414   2.956
 1075SOL    HW1 4298   2.945   5.423   2.998
 1075SOL    HW2 4299   3.018   5.350   2.887
 1075SOL     MW 4300   3.019   5.408   2.953
 1076SOL     OW 4301   2.608   1.450   4.669
 1076SOL    HW1 4302   2.581   1.535   4.632
 1076SOL    HW2 4303   2.647   1.472   4.753
 1076SOL     MW 4304   2.610   1.463   4.674
 1077SOL     OW 4305   5.054   4.904   3.871
 1077SOL    HW1 4306   5.090   4.970   3.812
 1077SOL    HW2 4307   5.129   4.875   3.922
 1077SOL     MW 4308   5.067   4.909   3.870
 1078SOL     OW 4309   3.199   3.707   4.663
 1078SOL    HW1 4310   3.181   3.801   4.674
 1078SOL    HW2 4311   3.234   3.680   4.747
 1078SOL     MW 4312   3.201   3.716   4.674
 1079SOL     OW 4313   4.716   5.357   2.462
 1079SOL    HW1 4314   4.695   5.451   2.463
 1079SOL    HW2 4315   4.733   5.338   2.371
 1079SOL     MW 4316   4.715   5.366   2.451
 1080SOL     OW 4317   0.004   3.225   0.433
 1080SOL    HW1 4318  -0.021   3.311   0.468
 1080SOL    HW2 4319   0.048   3.246   0.352
 1080SOL     MW 4320   0.006   3.238   0.428
 1081SOL     OW 4321   4.653   3.674   0.149
 1081SOL    HW1 4322   4.591   3.602   0.160
 1081SOL    HW2 4323   4.600   3.746   0.118
 1081SOL     MW 4324   4.639   3.674   0.147
 1082SOL     OW 4325   3.583   3.979   5.512
 1082SOL    HW1 4326   3.499   3.942   5.484
 1082SOL    HW2 4327   3.639   3.972   5.435
 1082SOL     MW 4328   3.580   3.974   5.500
 1083SOL     OW 4329   1.879   0.248   3.830
 1083SOL    HW1 4330   1.824   0.251   3.751
 1083SOL    HW2 4331   1.950   0.189   3.807
 1083SOL     MW 4332   1.881   0.242   3.818
 1084SOL     OW 4333   2.950   1.046   1.498
 1084SOL    HW1 4334   2.881   1.109   1.476
 1084SOL    HW2 4335   2.972   1.065   1.588
 1084SOL     MW 4336   2.944   1.056   1.506
 1085SOL     OW 4337   5.623   1.399   2.192
 1085SOL    HW1 4338   5.678   1.431   2.119
 1085SOL    HW2 4339   5.560   1.468   2.206
 1085SOL     MW 4340   5.623   1.411   2.184
 1086SOL     OW 4341   4.349   6.091   5.146
 1086SOL    HW1 4342   4.257   6.074   5.168
 1086SOL    HW2 4343   4.350   6.096   5.052
 1086SOL     MW 4344   4.338   6.090   5.138
 1087SOL     OW 4345   5.384   2.116   4.265
 1087SOL    HW1 4346   5.423   2.088   4.349
 1087SOL    HW2 4347   5.306   2.163   4.289
 1087SOL     MW 4348   5.380   2.118   4.278
 1088SOL     OW 4349   2.437   0.400   4.752
 1088SOL    HW1 4350   2.347   0.406   4.717
 1088SOL    HW2 4351   2.445   0.477   4.807
 1088SOL     MW 4352   2.427   0.410   4.754
 1089SOL     OW 4353   3.361   4.953   2.573
 1089SOL    HW1 4354   3.290   4.895   2.543
 1089SOL    HW2 4355   3.357   5.028   2.516
 1089SOL     MW 4356   3.352   4.955   2.563
 1090SOL     OW 4357   5.266   3.422   0.283
 1090SOL    HW1 4358   5.257   3.327   0.270
 1090SOL    HW2 4359   5.211   3.440   0.358
 1090SOL     MW 4360   5.258   3.413   0.290
 1091SOL     OW 4361   2.941   0.368   4.644
 1091SOL    HW1 4362   2.957   0.280   4.680
 1091SOL    HW2 4363   3.018   0.386   4.591
 1091SOL     MW 4364   2.952   0.359   4.642
 1092SOL     OW 4365   3.690   5.491   2.472
 1092SOL    HW1 4366   3.689   5.581   2.505
 1092SOL    HW2 4367   3.644   5.496   2.389
 1092SOL     MW 4368   3.685   5.502   2.466
 1093SOL     OW 4369   4.506   0.629   0.275
 1093SOL    HW1 4370   4.525   0.720   0.253
 1093SOL    HW2 4371   4.530   0.580   0.197
 1093SOL     MW 4372   4.511   0.634   0.263
 1094SOL     OW 4373   5.515   1.570   1.800
 1094SOL    HW1 4374   5.569   1.553   1.878
 1094SOL    HW2 4375   5.577   1.572   1.728
 1094SOL     MW 4376   5.529   1.568   1.801
 1095SOL     OW 4377   1.165   3.138   2.118
 1095SOL    HW1 4378   1.142   3.051   2.153
 1095SOL    HW2 4379   1.161   3.128   2.024
 1095SOL     MW 4380   1.162   3.126   2.111
 1096SOL     OW 4381   2.900   4.801   0.450
 1096SOL    HW1 4382   2.851   4.749   0.386
 1096SOL    HW2 4383   2.880   4.891   0.429
 1096SOL     MW 4384   2.892   4.805   0.440
 1097SOL     OW 4385   4.334   0.336   2.834
 1097SOL    HW1 4386   4.295   0.250   2.855
 1097SOL    HW2 4387   4.274   0.399   2.872
 1097SOL     MW 4388   4.322   0.333   2.841
 1098SOL     OW 4389   2.690   4.244   5.358
 1098SOL    HW1 4390   2.655   4.181   5.423
 1098SOL    HW2 4391   2.659   4.211   5.275
 1098SOL     MW 4392   2.682   4.233   5.356
 1099SOL     OW 4393   1.227   5.324   5.537
 1099SOL    HW1 4394   1.143   5.285   5.564
 1099SOL    HW2 4395   1.220   5.331   5.443
 1099SOL     MW 4396   1.216   5.320   5.529
 1100SOL     OW 4397   5.263   0.529   0.032
 1100SOL    HW1 4398   5.315   0.576  -0.034
 1100SOL    HW2 4399   5.280   0.575   0.113
 1100SOL     MW 4400   5.271   0.540   0.033
 1101SOL     OW 4401   2.189   0.405   5.764
 1101SOL    HW1 4402   2.250   0.378   5.834
 1101SOL    HW2 4403   2.133   0.469   5.806
 1101SOL     MW 4404   2.190   0.409   5.778
 1102SOL     OW 4405   5.423   3.611   2.111
 1102SOL    HW1 4406   5.343   3.575   2.151
 1102SOL    HW2 4407   5.404   3.611   2.018
 1102SOL     MW 4408   5.411   3.607   2.105
 1103SOL     OW 4409   1.218   4.750   5.171
 1103SOL    HW1 4410   1.172   4.801   5.238
 1103SOL    HW2 4411   1.271   4.813   5.125
 1103SOL     MW 4412   1.219   4.764   5.174
 1104SOL     OW 4413   4.692   1.872   3.758
 1104SOL    HW1 4414   4.774   1.822   3.756
 1104SOL    HW2 4415   4.677   1.889   3.850
 1104SOL     MW 4416   4.700   1.868   3.769
 1105SOL     OW 4417   1.465   3.931   1.447
 1105SOL    HW1 4418   1.536   3.993   1.427
 1105SOL    HW2 4419   1.462   3.875   1.370
 1105SOL     MW 4420   1.474   3.932   1.435
 1106SOL     OW 4421   1.922   5.427   3.562
 1106SOL    HW1 4422   1.948   5.336   3.580
 1106SOL    HW2 4423   1.961   5.477   3.633
 1106SOL     MW 4424   1.930   5.422   3.573
 1107SOL     OW 4425   3.814   4.446   3.311
 1107SOL    HW1 4426   3.890   4.411   3.262
 1107SOL    HW2 4427   3.739   4.418   3.260
 1107SOL     MW 4428   3.814   4.438   3.299
 1108SOL     OW 4429   5.114   4.636   4.111
 1108SOL    HW1 4430   5.147   4.686   4.036
 1108SOL    HW2 4431   5.182   4.646   4.177
 1108SOL     MW 4432   5.126   4.644   4.110
 1109SOL     OW 4433   3.193   3.226   5.519
 1109SOL    HW1 4434   3.204   3.130   5.522
 1109SOL    HW2 4435   3.207   3.254   5.608
 1109SOL     MW 4436   3.196   3.217   5.530
 1110SOL     OW 4437   5.797   2.140   0.851
 1110SOL    HW1 4438   5.872   2.129   0.910
 1110SOL    HW2 4439   5.834   2.133   0.764
 1110SOL     MW 4440   5.810   2.138   0.848
 1111SOL     OW 4441   5.799   3.616   1.527
 1111SOL    HW1 4442   5.756   3.530   1.523
 1111SOL    HW2 4443   5.823   3.627   1.619
 1111SOL     MW 4444   5.796   3.607   1.538
 1112SOL     OW 4445   5.465   3.053   4.436
 1112SOL    HW1 4446   5.381   3.077   4.395
 1112SOL    HW2 4447   5.447   3.055   4.529
 1112SOL     MW 4448   5.453   3.056   4.442
 1113SOL     OW 4449   1.517   4.931   2.209
 1113SOL    HW1 4450   1.440   4.900   2.257
 1113SOL    HW2 4451   1.509   4.891   2.124
 1113SOL     MW 4452   1.507   4.923   2.205
 1114SOL     OW 4453   2.073   1.279   3.722
 1114SOL    HW1 4454   1.986   1.301   3.757
 1114SOL    HW2 4455   2.118   1.239   3.795
 1114SOL     MW 4456   2.067   1.277   3.735
 1115SOL     OW 4457   1.124   4.319   1.175
 1115SOL    HW1 4458   1.033   4.326   1.205
 1115SOL    HW2 4459   1.133   4.227   1.151
 1115SOL     MW 4460   1.114   4.309   1.176
 1116SOL     OW 4461   3.294   1.911   1.505
 1116SOL    HW1 4462   3.390   1.905   1.508
 1116SOL    HW2 4463   3.270   1.864   1.425
 1116SOL     MW 4464   3.303   1.904   1.496
 1117SOL     OW 4465   3.365   3.321   2.075
 1117SOL    HW1 4466   3.456   3.312   2.103
 1117SOL    HW2 4467   3.352   3.415   2.066
 1117SOL     MW 4468   3.374   3.331   2.078
 1118SOL     OW 4469   3.155   1.982   2.723
 1118SOL    HW1 4470   3.250   1.975   2.738
 1118SOL    HW2 4471   3.134   1.905   2.673
 1118SOL     MW 4472   3.164   1.972   2.719
 1119SOL     OW 4473   5.079   1.030   3.599
 1119SOL    HW1 4474   5.102   0.941   3.627
 1119SOL    HW2 4475   5.158   1.081   3.616
 1119SOL     MW 4476   5.092   1.025   3.604
 1120SOL     OW 4477   0.024   1.000   2.938
 1120SOL    HW1 4478   0.104   1.052   2.923
 1120SOL    HW2 4479  -0.034   1.026   2.868
 1120SOL     MW 4480   0.027   1.010   2.928
 1121SOL     OW 4481   2.741   0.775   0.475
 1121SOL    HW1 4482   2.648   0.754   0.460
 1121SOL    HW2 4483   2.751   0.769   0.569
 1121SOL     MW 4484   2.731   0.772   0.484
 1122SOL     OW 4485   3.193   0.942   2.761
 1122SOL    HW1 4486   3.175   0.851   2.733
 1122SOL    HW2 4487   3.115   0.990   2.738
 1122SOL     MW 4488   3.182   0.936   2.755
 1123SOL     OW 4489   4.440   4.414   3.872
 1123SOL    HW1 4490   4.403   4.338   3.919
 1123SOL    HW2 4491   4.413   4.402   3.782
 1123SOL     MW 4492   4.432   4.404   3.868
 1124SOL     OW 4493   4.598   1.416   1.769
 1124SOL    HW1 4494   4.688   1.383   1.780
 1124SOL    HW2 4495   4.610   1.507   1.744
 1124SOL     MW 4496   4.610   1.423   1.767
 1125SOL     OW 4497   5.435   4.416   2.912
 1125SOL    HW1 4498   5.344   4.440   2.932
 1125SOL    HW2 4499   5.481   4.499   2.905
 1125SOL     MW 4500   5.429   4.429   2.914
 1126SOL     OW 4501   0.260   2.804   2.895
 1126SOL    HW1 4502   0.202   2.762   2.959
 1126SOL    HW2 4503   0.316   2.734   2.865
 1126SOL     MW 4504   0.260   2.791   2.899
 1127SOL     OW 4505   4.547   5.140   3.598
 1127SOL    HW1 4506   4.506   5.192   3.529
 1127SOL    HW2 4507   4.613   5.089   3.553
 1127SOL     MW 4508   4.550   5.141   3.584
 1128SOL     OW 4509   5.972   3.586   4.665
 1128SOL    HW1 4510   5.970   3.512   4.604
 1128SOL    HW2 4511   5.882   3.594   4.695
 1128SOL     MW 4512   5.961   3.578   4.661
 1129SOL     OW 4513   4.791   1.715   2.185
 1129SOL    HW1 4514   4.878   1.681   2.209
 1129SOL    HW2 4515   4.794   1.806   2.209
 1129SOL     MW 4516   4.802   1.721   2.190
 1130SOL     OW 4517   5.919   2.159   2.684
 1130SOL    HW1 4518   5.939   2.224   2.753
 1130SOL    HW2 4519   5.991   2.168   2.623
 1130SOL     MW 4520   5.930   2.168   2.685
 1131SOL     OW 4521   2.094   3.531   4.874
 1131SOL    HW1 4522   2.174   3.582   4.892
 1131SOL    HW2 4523   2.074   3.489   4.957
 1131SOL     MW 4524   2.101   3.532   4.886
 1132SOL     OW 4525   3.991   5.350   0.039
 1132SOL    HW1 4526   3.955   5.326   0.126
 1132SOL    HW2 4527   3.961   5.439   0.027
 1132SOL     MW 4528   3.983   5.358   0.049
 1133SOL     OW 4529   3.334   1.604   5.506
 1133SOL    HW1 4530   3.273   1.531   5.487
 1133SOL    HW2 4531   3.318   1.624   5.597
 1133SOL     MW 4532   3.324   1.597   5.514
 1134SOL     OW 4533   1.433   2.730   2.600
 1134SOL    HW1 4534   1.490   2.799   2.634
 1134SOL    HW2 4535   1.443   2.735   2.506
 1134SOL     MW 4536   1.441   2.739   2.593
 1135SOL     OW 4537   2.593   3.283   5.377
 1135SOL    HW1 4538   2.628   3.266   5.289
 1135SOL    HW2 4539   2.577   3.197   5.413
 1135SOL     MW 4540   2.596   3.271   5.371
 1136SOL     OW 4541   0.312   0.483   3.881
 1136SOL    HW1 4542   0.394   0.523   3.850
 1136SOL    HW2 4543   0.336   0.393   3.901
 1136SOL     MW 4544   0.325   0.477   3.880
 1137SOL     OW 4545   2.203   4.919   4.380
 1137SOL    HW1 4546   2.220   4.964   4.297
 1137SOL    HW2 4547   2.111   4.897   4.377
 1137SOL     MW 4548   2.194   4.922   4.369
 1138SOL     OW 4549   0.497   0.753   3.626
 1138SOL    HW1 4550   0.411   0.719   3.652
 1138SOL    HW2 4551   0.486   0.774   3.534
 1138SOL     MW 4552   0.485   0.752   3.618
 1139SOL     OW 4553   1.765   3.519   0.340
 1139SOL    HW1 4554   1.772   3.568   0.422
 1139SOL    HW2 4555   1.753   3.429   0.367
 1139SOL     MW 4556   1.765   3.515   0.353
 1140SOL     OW 4557   5.915   2.454   4.866
 1140SOL    HW1 4558   5.951   2.374   4.826
 1140SOL    HW2 4559   5.909   2.515   4.794
 1140SOL     MW 4560   5.919   2.452   4.853
 1141SOL     OW 4561   4.385   2.336   1.873
 1141SOL    HW1 4562   4.428   2.412   1.833
 1141SOL    HW2 4563   4.430   2.326   1.957
 1141SOL     MW 4564   4.396   2.344   1.878
 1142SOL     OW 4565   1.747   5.137   4.690
 1142SOL    HW1 4566   1.787   5.221   4.664
 1142SOL    HW2 4567   1.820   5.077   4.693
 1142SOL     MW 4568   1.760   5.140   4.687
 1143SOL     OW 4569   3.082   5.552   1.140
 1143SOL    HW1 4570   3.003   5.607   1.144
 1143SOL    HW2 4571   3.136   5.584   1.211
 1143SOL     MW 4572   3.079   5.563   1.149
 1144SOL     OW 4573   5.910   3.864   4.170
 1144SOL    HW1 4574   5.883   3.932   4.232
 1144SOL    HW2 4575   5.934   3.913   4.092
 1144SOL     MW 4576   5.910   3.878   4.168
 1145SOL     OW 4577   4.517   3.157   0.905
 1145SOL    HW1 4578   4.524   3.062   0.923
 1145SOL    HW2 4579   4.427   3.178   0.925
 1145SOL     MW 4580   4.507   3.148   0.910
 1146SOL     OW 4581   1.358   2.705   1.597
 1146SOL    HW1 4582   1.433   2.738   1.547
 1146SOL    HW2 4583   1.366   2.610   1.591
 1146SOL     MW 4584   1.368   2.698   1.590
 1147SOL     OW 4585   0.093   3.976   4.966
 1147SOL    HW1 4586   0.100   3.903   5.028
 1147SOL    HW2 4587   0.167   4.032   4.988
 1147SOL     MW 4588   0.103   3.974   4.976
 1148SOL     OW 4589   4.098   3.003   1.856
 1148SOL    HW1 4590   4.138   3.085   1.888
 1148SOL    HW2 4591   4.065   2.962   1.935
 1148SOL     MW 4592   4.099   3.008   1.869
 1149SOL     OW 4593   0.918   3.882   2.746
 1149SOL    HW1 4594   0.927   3.792   2.715
 1149SOL    HW2 4595   0.983   3.889   2.815
 1149SOL     MW 4596   0.927   3.872   2.750
 1150SOL     OW 4597   0.113   2.749   4.839
 1150SOL    HW1 4598   0.082   2.689   4.907
 1150SOL    HW2 4599   0.103   2.700   4.758
 1150SOL     MW 4600   0.108   2.736   4.838
 1151SOL     OW 4601   0.752   0.346   0.120
 1151SOL    HW1 4602   0.718   0.397   0.194
 1151SOL    HW2 4603   0.845   0.339   0.137
 1151SOL     MW 4604   0.759   0.352   0.131
 1152SOL     OW 4605   5.497   4.884   1.003
 1152SOL    HW1 4606   5.575   4.932   0.975
 1152SOL    HW2 4607   5.520   4.793   0.993
 1152SOL     MW 4608   5.509   4.879   0.999
 1153SOL     OW 4609   1.892   3.286   2.664
 1153SOL    HW1 4610   1.887   3.211   2.604
 1153SOL    HW2 4611   1.822   3.270   2.727
 1153SOL     MW 4612   1.883   3.275   2.664
 1154SOL     OW 4613   1.017   3.339   4.035
 1154SOL    HW1 4614   1.008   3.272   3.966
 1154SOL    HW2 4615   1.067   3.296   4.103
 1154SOL     MW 4616   1.022   3.326   4.034
 1155SOL     OW 4617   2.341   2.201   0.894
 1155SOL    HW1 4618   2.421   2.189   0.843
 1155SOL    HW2 4619   2.338   2.125   0.951
 1155SOL     MW 4620   2.350   2.191   0.895
 1156SOL     OW 4621   0.353   0.678   1.015
 1156SOL    HW1 4622   0.260   0.680   1.040
 1156SOL    HW2 4623   0.353   0.705   0.924
 1156SOL     MW 4624   0.341   0.682   1.008
 1157SOL     OW 4625   4.400   2.954   4.981
 1157SOL    HW1 4626   4.370   2.864   4.993
 1157SOL    HW2 4627   4.477   2.946   4.926
 1157SOL     MW 4628   4.406   2.942   4.975
 1158SOL     OW 4629   2.193   4.570   3.787
 1158SOL    HW1 4630   2.274   4.526   3.760
 1158SOL    HW2 4631   2.187   4.554   3.880
 1158SOL     MW 4632   2.202   4.563   3.795
 1159SOL     OW 4633   5.449   1.318   3.087
 1159SOL    HW1 4634   5.532   1.290   3.047
 1159SOL    HW2 4635   5.476   1.363   3.167
 1159SOL     MW 4636   5.462   1.320   3.092
 1160SOL     OW 4637   3.003   3.002   4.484
 1160SOL    HW1 4638   3.020   3.095   4.463
 1160SOL    HW2 4639   3.031   2.955   4.406
 1160SOL     MW 4640   3.008   3.008   4.472
 1161SOL     OW 4641   5.182   1.932   0.309
 1161SOL    HW1 4642   5.188   2.013   0.258
 1161SOL    HW2 4643   5.099   1.895   0.283
 1161SOL     MW 4644   5.173   1.937   0.300
 1162SOL     OW 4645   2.909   2.913   5.816
 1162SOL    HW1 4646   2.931   2.893   5.907
 1162SOL    HW2 4647   2.917   2.829   5.771
 1162SOL     MW 4648   2.913   2.901   5.822
 1163SOL     OW 4649   3.515   3.230   4.786
 1163SOL    HW1 4650   3.603   3.269   4.782
 1163SOL    HW2 4651   3.529   3.146   4.828
 1163SOL     MW 4652   3.527   3.225   4.791
 1164SOL     OW 4653   1.107  -0.012   1.736
 1164SOL    HW1 4654   1.120   0.004   1.642
 1164SOL    HW2 4655   1.136   0.068   1.778
 1164SOL     MW 4656   1.112  -0.000   1.729
 1165SOL     OW 4657   4.623   1.744   5.650
 1165SOL    HW1 4658   4.671   1.789   5.721
 1165SOL    HW2 4659   4.533   1.749   5.677
 1165SOL     MW 4660   4.619   1.750   5.662
 1166SOL     OW 4661   2.790   5.677   1.666
 1166SOL    HW1 4662   2.849   5.750   1.688
 1166SOL    HW2 4663   2.824   5.645   1.583
 1166SOL     MW 4664   2.802   5.682   1.659
 1167SOL     OW 4665   0.566   1.682   5.159
 1167SOL    HW1 4666   0.624   1.627   5.213
 1167SOL    HW2 4667   0.519   1.736   5.222
 1167SOL     MW 4668   0.568   1.682   5.173
 1168SOL     OW 4669   3.283   0.297   4.457
 1168SOL    HW1 4670   3.219   0.237   4.419
 1168SOL    HW2 4671   3.335   0.243   4.516
 1168SOL     MW 4672   3.282   0.283   4.459
 1169SOL     OW 4673   5.644   4.541   4.633
 1169SOL    HW1 4674   5.691   4.535   4.550
 1169SOL    HW2 4675   5.685   4.477   4.689
 1169SOL     MW 4676   5.654   4.533   4.629
 1170SOL     OW 4677   5.129   5.584   3.786
 1170SOL    HW1 4678   5.209   5.581   3.839
 1170SOL    HW2 4679   5.082   5.505   3.811
 1170SOL     MW 4680   5.133   5.575   3.796
 1171SOL     OW 4681   1.945   5.118   3.742
 1171SOL    HW1 4682   2.041   5.121   3.739
 1171SOL    HW2 4683   1.924   5.138   3.832
 1171SOL     MW 4684   1.954   5.121   3.752
 1172SOL     OW 4685   3.396   2.662   3.414
 1172SOL    HW1 4686   3.422   2.631   3.501
 1172SOL    HW2 4687   3.343   2.739   3.431
 1172SOL     MW 4688   3.393   2.668   3.426
 1173SOL     OW 4689   2.158   4.801   3.840
 1173SOL    HW1 4690   2.098   4.872   3.815
 1173SOL    HW2 4691   2.151   4.797   3.934
 1173SOL     MW 4692   2.150   4.810   3.848
 1174SOL     OW 4693   0.711   2.931   4.556
 1174SOL    HW1 4694   0.647   2.987   4.511
 1174SOL    HW2 4695   0.763   2.991   4.608
 1174SOL     MW 4696   0.709   2.945   4.557
 1175SOL     OW 4697   0.834   3.136   1.554
 1175SOL    HW1 4698   0.803   3.046   1.565
 1175SOL    HW2 4699   0.773   3.175   1.493
 1175SOL     MW 4700   0.823   3.129   1.548
 1176SOL     OW 4701   0.990   2.138   1.683
 1176SOL    HW1 4702   0.999   2.223   1.728
 1176SOL    HW2 4703   0.953   2.160   1.599
 1176SOL     MW 4704   0.987   2.151   1.678
 1177SOL     OW 4705   3.701   4.813   2.452
 1177SOL    HW1 4706   3.780   4.790   2.501
 1177SOL    HW2 4707   3.705   4.760   2.374
 1177SOL     MW 4708   3.711   4.804   2.449
 1178SOL     OW 4709   4.052   0.692   4.903
 1178SOL    HW1 4710   4.078   0.612   4.949
 1178SOL    HW2 4711   4.129   0.747   4.904
 1178SOL     MW 4712   4.064   0.689   4.909
 1179SOL     OW 4713   0.210   0.755   3.085
 1179SOL    HW1 4714   0.249   0.669   3.065
 1179SOL    HW2 4715   0.174   0.785   3.003
 1179SOL     MW 4716   0.211   0.748   3.073
 1180SOL     OW 4717   3.321   0.625   5.258
 1180SOL    HW1 4718   3.309   0.535   5.291
 1180SOL    HW2 4719   3.270   0.679   5.317
 1180SOL     MW 4720   3.314   0.621   5.269
 1181SOL     OW 4721   1.610   5.148   1.905
 1181SOL    HW1 4722   1.539   5.184   1.853
 1181SOL    HW2 4723   1.619   5.059   1.875
 1181SOL     MW 4724   1.603   5.142   1.895
 1182SOL     OW 4725   1.419   3.764   5.359
 1182SOL    HW1 4726   1.475   3.810   5.422
 1182SOL    HW2 4727   1.431   3.811   5.277
 1182SOL     MW 4728   1.428   3.775   5.357
 1183SOL     OW 4729   2.641   1.401   2.260
 1183SOL    HW1 4730   2.727   1.436   2.286
 1183SOL    HW2 4731   2.609   1.463   2.197
 1183SOL     MW 4732   2.648   1.413   2.256
 1184SOL     OW 4733   3.929   2.658   2.247
 1184SOL    HW1 4734   3.857   2.595   2.243
 1184SOL    HW2 4735   3.914   2.706   2.328
 1184SOL     MW 4736   3.919   2.656   2.256
 1185SOL     OW 4737   5.690   5.586   1.999
 1185SOL    HW1 4738   5.708   5.506   2.049
 1185SOL    HW2 4739   5.690   5.558   1.909
 1185SOL     MW 4740   5.692   5.573   1.995
 1186SOL     OW 4741   0.165   5.922   2.612
 1186SOL    HW1 4742   0.182   5.977   2.534
 1186SOL    HW2 4743   0.071   5.925   2.622
 1186SOL     MW 4744   0.156   5.929   2.603
 1187SOL     OW 4745   0.693   0.659   1.206
 1187SOL    HW1 4746   0.735   0.692   1.126
 1187SOL    HW2 4747   0.602   0.645   1.180
 1187SOL     MW 4748   0.687   0.661   1.193
 1188SOL     OW 4749   0.002   3.156   3.176
 1188SOL    HW1 4750  -0.020   3.122   3.089
 1188SOL    HW2 4751   0.056   3.232   3.158
 1188SOL     MW 4752   0.006   3.161   3.163
 1189SOL     OW 4753   0.095   3.303   0.049
 1189SOL    HW1 4754   0.058   3.266   0.129
 1189SOL    HW2 4755   0.031   3.281  -0.018
 1189SOL     MW 4756   0.083   3.296   0.051
 1190SOL     OW 4757   4.104   5.718   1.669
 1190SOL    HW1 4758   4.065   5.803   1.648
 1190SOL    HW2 4759   4.144   5.732   1.754
 1190SOL     MW 4760   4.104   5.730   1.677
 1191SOL     OW 4761   0.890   5.656   5.974
 1191SOL    HW1 4762   0.923   5.743   5.947
 1191SOL    HW2 4763   0.877   5.664   6.068
 1191SOL     MW 4764   0.893   5.668   5.982
 1192SOL     OW 4765   1.042   2.736   1.938
 1192SOL    HW1 4766   1.138   2.735   1.926
 1192SOL    HW2 4767   1.030   2.720   2.030
 1192SOL     MW 4768   1.052   2.734   1.947
 1193SOL     OW 4769   1.370   0.724   5.995
 1193SOL    HW1 4770   1.290   0.677   5.969
 1193SOL    HW2 4771   1.397   0.681   6.075
 1193SOL     MW 4772   1.363   0.713   6.001
 1194SOL     OW 4773   2.017   2.716   2.632
 1194SOL    HW1 4774   2.110   2.721   2.658
 1194SOL    HW2 4775   1.978   2.659   2.697
 1194SOL     MW 4776   2.024   2.710   2.643
 1195SOL     OW 4777   3.791   5.574   2.014
 1195SOL    HW1 4778   3.847   5.498   2.035
 1195SOL    HW2 4779   3.741   5.546   1.938
 1195SOL     MW 4780   3.792   5.562   2.007
 1196SOL     OW 4781   5.423   5.300   3.918
 1196SOL    HW1 4782   5.340   5.252   3.911
 1196SOL    HW2 4783   5.434   5.341   3.833
 1196SOL     MW 4784   5.414   5.299   3.907
 1197SOL     OW 4785   0.544   1.311   5.452
 1197SOL    HW1 4786   0.519   1.365   5.376
 1197SOL    HW2 4787   0.536   1.371   5.525
 1197SOL     MW 4788   0.540   1.325   5.451
 1198SOL     OW 4789   1.107   1.546   5.204
 1198SOL    HW1 4790   1.108   1.639   5.226
 1198SOL    HW2 4791   1.190   1.513   5.238
 1198SOL     MW 4792   1.117   1.553   5.211
 1199SOL     OW 4793   3.249   5.961   2.743
 1199SOL    HW1 4794   3.167   5.919   2.769
 1199SOL    HW2 4795   3.282   6.001   2.822
 1199SOL     MW 4796   3.243   5.960   2.755
 1200SOL     OW 4797   0.827   3.792   5.110
 1200SOL    HW1 4798   0.773   3.742   5.172
 1200SOL    HW2 4799   0.911   3.798   5.153
 1200SOL     MW 4800   0.830   3.787   5.123
 1201SOL     OW 4801   4.177   4.256   3.879
 1201SOL    HW1 4802   4.114   4.184   3.865
 1201SOL    HW2 4803   4.231   4.227   3.951
 1201SOL     MW 4804   4.175   4.244   3.885
 1202SOL     OW 4805   1.486   6.108   2.143
 1202SOL    HW1 4806   1.480   6.031   2.200
 1202SOL    HW2 4807   1.519   6.074   2.061
 1202SOL     MW 4808   1.489   6.095   2.140
 1203SOL     OW 4809   1.776   2.862   3.003
 1203SOL    HW1 4810   1.731   2.888   2.922
 1203SOL    HW2 4811   1.715   2.803   3.046
 1203SOL     MW 4812   1.764   2.858   2.998
 1204SOL     OW 4813   0.928   4.098   2.951
 1204SOL    HW1 4814   0.862   4.137   2.893
 1204SOL    HW2 4815   0.894   4.115   3.038
 1204SOL     MW 4816   0.916   4.105   2.954
 1205SOL     OW 4817   1.165   1.170   4.881
 1205SOL    HW1 4818   1.093   1.106   4.886
 1205SOL    HW2 4819   1.124   1.247   4.844
 1205SOL     MW 4820   1.151   1.171   4.877
 1206SOL     OW 4821   3.465   1.830   4.658
 1206SOL    HW1 4822   3.399   1.820   4.728
 1206SOL    HW2 4823   3.439   1.765   4.593
 1206SOL     MW 4824   3.454   1.821   4.659
 1207SOL     OW 4825   2.929   3.102   2.493
 1207SOL    HW1 4826   2.891   3.172   2.439
 1207SOL    HW2 4827   2.960   3.146   2.571
 1207SOL     MW 4828   2.928   3.115   2.495
 1208SOL     OW 4829   4.127   0.460   3.284
 1208SOL    HW1 4830   4.164   0.524   3.222
 1208SOL    HW2 4831   4.173   0.477   3.365
 1208SOL     MW 4832   4.137   0.470   3.286
 1209SOL     OW 4833   1.990   1.929   4.682
 1209SOL    HW1 4834   2.014   1.939   4.590
 1209SOL    HW2 4835   1.965   2.017   4.709
 1209SOL     MW 4836   1.990   1.941   4.674
 1210SOL     OW 4837   1.924   2.387   4.883
 1210SOL    HW1 4838   2.015   2.417   4.874
 1210SOL    HW2 4839   1.923   2.302   4.841
 1210SOL     MW 4840   1.935   2.380   4.877
 1211SOL     OW 4841   5.249   0.738   2.631
 1211SOL    HW1 4842   5.334   0.748   2.589
 1211SOL    HW2 4843   5.266   0.753   2.723
 1211SOL     MW 4844   5.261   0.741   2.637
 1212SOL     OW 4845   4.159   1.617   2.318
 1212SOL    HW1 4846   4.184   1.528   2.344
 1212SOL    HW2 4847   4.152   1.612   2.223
 1212SOL     MW 4848   4.161   1.605   2.310
 1213SOL     OW 4849   1.905   5.935   2.722
 1213SOL    HW1 4850   1.967   5.989   2.672
 1213SOL    HW2 4851   1.849   5.998   2.766
 1213SOL     MW 4852   1.906   5.949   2.721
 1214SOL     OW 4853   1.452   5.484   2.098
 1214SOL    HW1 4854   1.495   5.454   2.178
 1214SOL    HW2 4855   1.360   5.487   2.121
 1214SOL     MW 4856   1.446   5.481   2.110
 1215SOL     OW 4857   6.001   3.159   1.633
 1215SOL    HW1 4858   6.037   3.070   1.645
 1215SOL    HW2 4859   6.063   3.215   1.677
 1215SOL     MW 4860   6.013   3.155   1.640
 1216SOL     OW 4861   2.130   0.203   1.544
 1216SOL    HW1 4862   2.202   0.147   1.575
 1216SOL    HW2 4863   2.124   0.183   1.451
 1216SOL     MW 4864   2.138   0.194   1.537
 1217SOL     OW 4865   0.476   4.910   0.273
 1217SOL    HW1 4866   0.546   4.908   0.207
 1217SOL    HW2 4867   0.416   4.842   0.245
 1217SOL     MW 4868   0.478   4.902   0.262
 1218SOL     OW 4869   2.085   3.857   1.581
 1218SOL    HW1 4870   2.113   3.791   1.646
 1218SOL    HW2 4871   2.165   3.899   1.555
 1218SOL     MW 4872   2.098   3.854   1.586
 1219SOL     OW 4873   1.455   5.377   3.110
 1219SOL    HW1 4874   1.500   5.348   3.029
 1219SOL    HW2 4875   1.428   5.466   3.091
 1219SOL     MW 4876   1.457   5.384   3.098
 1220SOL     OW 4877   5.909   3.882   2.279
 1220SOL    HW1 4878   6.003   3.883   2.297
 1220SOL    HW2 4879   5.875   3.957   2.327
 1220SOL     MW 4880   5.916   3.891   2.287
 1221SOL     OW 4881   0.598   3.327   5.110
 1221SOL    HW1 4882   0.548   3.264   5.056
 1221SOL    HW2 4883   0.532   3.387   5.143
 1221SOL     MW 4884   0.584   3.327   5.107
 1222SOL     OW 4885   0.442   5.297   2.157
 1222SOL    HW1 4886   0.476   5.268   2.072
 1222SOL    HW2 4887   0.482   5.382   2.171
 1222SOL     MW 4888   0.451   5.303   2.148
 1223SOL     OW 4889   1.163   2.646   4.103
 1223SOL    HW1 4890   1.120   2.561   4.113
 1223SOL    HW2 4891   1.092   2.706   4.084
 1223SOL     MW 4892   1.149   2.643   4.102
 1224SOL     OW 4893   0.109   1.844   2.465
 1224SOL    HW1 4894   0.025   1.803   2.490
 1224SOL    HW2 4895   0.127   1.904   2.535
 1224SOL     MW 4896   0.101   1.846   2.476
 1225SOL     OW 4897   5.853   3.411   1.168
 1225SOL    HW1 4898   5.824   3.400   1.077
 1225SOL    HW2 4899   5.947   3.399   1.164
 1225SOL     MW 4900   5.861   3.408   1.157
 1226SOL     OW 4901   0.151   0.400   4.156
 1226SOL    HW1 4902   0.219   0.373   4.094
 1226SOL    HW2 4903   0.197   0.449   4.222
 1226SOL     MW 4904   0.165   0.402   4.156
 1227SOL     OW 4905   5.672   1.829   4.400
 1227SOL    HW1 4906   5.594   1.797   4.353
 1227SOL    HW2 4907   5.701   1.753   4.450
 1227SOL     MW 4908   5.666   1.816   4.400
 1228SOL     OW 4909   2.724   0.669   6.070
 1228SOL    HW1 4910   2.661   0.664   6.143
 1228SOL    HW2 4911   2.669   0.682   5.993
 1228SOL     MW 4912   2.709   0.670   6.070
 1229SOL     OW 4913   1.939   2.149   1.883
 1229SOL    HW1 4914   2.008   2.108   1.936
 1229SOL    HW2 4915   1.940   2.100   1.802
 1229SOL     MW 4916   1.947   2.138   1.880
 1230SOL     OW 4917   3.886   5.772   6.008
 1230SOL    HW1 4918   3.878   5.830   6.085
 1230SOL    HW2 4919   3.964   5.804   5.964
 1230SOL     MW 4920   3.894   5.783   6.012
 1231SOL     OW 4921   1.388   3.229   5.079
 1231SOL    HW1 4922   1.380   3.144   5.123
 1231SOL    HW2 4923   1.343   3.216   4.996
 1231SOL     MW 4924   1.381   3.217   5.075
 1232SOL     OW 4925   3.807   2.255   3.101
 1232SOL    HW1 4926   3.845   2.172   3.132
 1232SOL    HW2 4927   3.872   2.320   3.124
 1232SOL     MW 4928   3.819   2.253   3.108
 1233SOL     OW 4929   1.899   4.442   0.428
 1233SOL    HW1 4930   1.983   4.455   0.474
 1233SOL    HW2 4931   1.923   4.428   0.338
 1233SOL     MW 4932   1.912   4.442   0.423
 1234SOL     OW 4933   0.720   6.095   5.343
 1234SOL    HW1 4934   0.690   6.156   5.275
 1234SOL    HW2 4935   0.784   6.041   5.300
 1234SOL     MW 4936   0.724   6.096   5.330
 1235SOL     OW 4937   0.261   3.190   3.514
 1235SOL    HW1 4938   0.192   3.125   3.493
 1235SOL    HW2 4939   0.309   3.149   3.586
 1235SOL     MW 4940   0.258   3.177   3.520
 1236SOL     OW 4941   5.470   1.753   5.967
 1236SOL    HW1 4942   5.463   1.839   6.009
 1236SOL    HW2 4943   5.449   1.770   5.876
 1236SOL     MW 4944   5.467   1.765   5.961
 1237SOL     OW 4945   3.333   4.355   2.903
 1237SOL    HW1 4946   3.339   4.428   2.967
 1237SOL    HW2 4947   3.409   4.302   2.922
 1237SOL     MW 4948   3.342   4.358   2.913
 1238SOL     OW 4949   0.711   0.123   3.158
 1238SOL    HW1 4950   0.786   0.122   3.098
 1238SOL    HW2 4951   0.740   0.174   3.232
 1238SOL     MW 4952   0.724   0.129   3.159
 1239SOL     OW 4953   3.590   2.073   4.502
 1239SOL    HW1 4954   3.519   2.096   4.442
 1239SOL    HW2 4955   3.547   2.054   4.584
 1239SOL     MW 4956   3.576   2.073   4.504
 1240SOL     OW 4957   1.867   2.910   4.609
 1240SOL    HW1 4958   1.957   2.889   4.635
 1240SOL    HW2 4959   1.848   2.849   4.538
 1240SOL     MW 4960   1.876   2.900   4.603
 1241SOL     OW 4961   4.972   5.350   0.033
 1241SOL    HW1 4962   4.915   5.278   0.003
 1241SOL    HW2 4963   4.911   5.416   0.064
 1241SOL     MW 4964   4.957   5.349   0.033
 1242SOL     OW 4965   5.892   5.881   4.289
 1242SOL    HW1 4966   5.926   5.969   4.308
 1242SOL    HW2 4967   5.847   5.891   4.206
 1242SOL     MW 4968   5.891   5.893   4.282
 1243SOL     OW 4969   0.473   3.805   4.292
 1243SOL    HW1 4970   0.539   3.865   4.330
 1243SOL    HW2 4971   0.487   3.811   4.199
 1243SOL     MW 4972   0.483   3.813   4.286
 1244SOL     OW 4973   6.085   3.532   0.666
 1244SOL    HW1 4974   6.101   3.619   0.627
 1244SOL    HW2 4975   6.118   3.539   0.754
 1244SOL     MW 4976   6.091   3.543   0.672
 1245SOL     OW 4977   2.269   1.085   2.805
 1245SOL    HW1 4978   2.312   1.170   2.799
 1245SOL    HW2 4979   2.332   1.029   2.849
 1245SOL     MW 4980   2.281   1.088   2.809
 1246SOL     OW 4981   0.554   2.413   1.207
 1246SOL    HW1 4982   0.554   2.415   1.111
 1246SOL    HW2 4983   0.474   2.456   1.232
 1246SOL     MW 4984   0.545   2.418   1.199
 1247SOL     OW 4985   2.826   3.241   5.732
 1247SOL    HW1 4986   2.823   3.199   5.818
 1247SOL    HW2 4987   2.864   3.176   5.675
 1247SOL     MW 4988   2.830   3.228   5.736
 1248SOL     OW 4989   2.108   2.967   0.345
 1248SOL    HW1 4990   2.197   2.938   0.368
 1248SOL    HW2 4991   2.052   2.909   0.395
 1248SOL     MW 4992   2.112   2.956   0.354
 1249SOL     OW 4993   5.367   4.266   1.853
 1249SOL    HW1 4994   5.358   4.226   1.766
 1249SOL    HW2 4995   5.330   4.202   1.912
 1249SOL     MW 4996   5.362   4.253   1.850
 1250SOL     OW 4997   2.014   0.725   5.285
 1250SOL    HW1 4998   2.021   0.780   5.206
 1250SOL    HW2 4999   2.093   0.745   5.333
 1250SOL     MW 5000   2.024   0.734   5.281
 1251SOL     OW 5001   6.055   3.409   4.780
 1251SOL    HW1 5002   5.962   3.420   4.760
 1251SOL    HW2 5003   6.064   3.439   4.869
 1251SOL     MW 5004   6.045   3.414   4.788
 1252SOL     OW 5005   3.571   3.331   1.360
 1252SOL    HW1 5006   3.550   3.388   1.285
 1252SOL    HW2 5007   3.649   3.370   1.398
 1252SOL     MW 5008   3.578   3.343   1.355
 1253SOL     OW 5009   4.568   0.788   5.866
 1253SOL    HW1 5010   4.629   0.761   5.935
 1253SOL    HW2 5011   4.622   0.837   5.805
 1253SOL     MW 5012   4.582   0.790   5.867
 1254SOL     OW 5013   5.899   2.220   5.730
 1254SOL    HW1 5014   5.879   2.198   5.638
 1254SOL    HW2 5015   5.958   2.151   5.758
 1254SOL     MW 5016   5.904   2.209   5.722
 1255SOL     OW 5017   5.249   5.574   5.811
 1255SOL    HW1 5018   5.216   5.530   5.890
 1255SOL    HW2 5019   5.174   5.577   5.753
 1255SOL     MW 5020   5.236   5.569   5.814
 1256SOL     OW 5021   3.161   2.394   1.596
 1256SOL    HW1 5022   3.162   2.489   1.581
 1256SOL    HW2 5023   3.074   2.367   1.571
 1256SOL     MW 5024   3.151   2.402   1.591
 1257SOL     OW 5025   2.739   3.804   4.542
 1257SOL    HW1 5026   2.787   3.766   4.467
 1257SOL    HW2 5027   2.806   3.851   4.590
 1257SOL     MW 5028   2.753   3.805   4.538
 1258SOL     OW 5029   4.866   4.838   3.740
 1258SOL    HW1 5030   4.780   4.867   3.772
 1258SOL    HW2 5031   4.926   4.906   3.768
 1258SOL     MW 5032   4.863   4.849   3.747
 1259SOL     OW 5033   4.867   5.213   2.937
 1259SOL    HW1 5034   4.859   5.122   2.909
 1259SOL    HW2 5035   4.832   5.264   2.865
 1259SOL     MW 5036   4.862   5.208   2.925
 1260SOL     OW 5037   2.030   3.051   1.343
 1260SOL    HW1 5038   2.003   2.964   1.312
 1260SOL    HW2 5039   2.016   3.048   1.437
 1260SOL     MW 5040   2.025   3.040   1.351
 1261SOL     OW 5041   5.344   2.053   4.097
 1261SOL    HW1 5042   5.264   2.038   4.149
 1261SOL    HW2 5043   5.311   2.064   4.008
 1261SOL     MW 5044   5.330   2.052   4.093
 1262SOL     OW 5045   4.386   0.348   0.747
 1262SOL    HW1 5046   4.477   0.336   0.776
 1262SOL    HW2 5047   4.375   0.442   0.746
 1262SOL     MW 5048   4.396   0.357   0.751
 1263SOL     OW 5049   1.339   5.153   1.565
 1263SOL    HW1 5050   1.302   5.072   1.530
 1263SOL    HW2 5051   1.327   5.146   1.659
 1263SOL     MW 5052   1.333   5.142   1.572
 1264SOL     OW 5053   4.957   3.281   3.259
 1264SOL    HW1 5054   4.939   3.317   3.172
 1264SOL    HW2 5055   4.989   3.193   3.242
 1264SOL     MW 5056   4.958   3.275   3.246
 1265SOL     OW 5057   2.336   5.303   1.004
 1265SOL    HW1 5058   2.258   5.312   0.948
 1265SOL    HW2 5059   2.341   5.210   1.022
 1265SOL     MW 5060   2.327   5.293   0.999
 1266SOL     OW 5061   3.336   0.861   3.953
 1266SOL    HW1 5062   3.374   0.813   4.027
 1266SOL    HW2 5063   3.268   0.804   3.920
 1266SOL     MW 5064   3.333   0.848   3.958
 1267SOL     OW 5065   1.041   3.026   1.227
 1267SOL    HW1 5066   0.975   3.012   1.158
 1267SOL    HW2 5067   0.991   3.063   1.299
 1267SOL     MW 5068   1.027   3.029   1.227
 1268SOL     OW 5069   1.775   0.829   5.883
 1268SOL    HW1 5070   1.706   0.762   5.887
 1268SOL    HW2 5071   1.800   0.831   5.791
 1268SOL     MW 5072   1.770   0.821   5.872
 1269SOL     OW 5073   5.027   4.673   3.699
 1269SOL    HW1 5074   4.940   4.632   3.691
 1269SOL    HW2 5075   5.047   4.668   3.792
 1269SOL     MW 5076   5.018   4.668   3.709
 1270SOL     OW 5077   1.869   0.266   6.008
 1270SOL    HW1 5078   1.809   0.317   6.063
 1270SOL    HW2 5079   1.944   0.250   6.063
 1270SOL     MW 5080   1.871   0.270   6.021
 1271SOL     OW 5081   2.093   1.174   4.930
 1271SOL    HW1 5082   2.113   1.240   4.998
 1271SOL    HW2 5083   2.138   1.096   4.959
 1271SOL     MW 5084   2.100   1.173   4.942
 1272SOL     OW 5085   1.393   2.334   1.158
 1272SOL    HW1 5086   1.313   2.341   1.105
 1272SOL    HW2 5087   1.452   2.397   1.119
 1272SOL     MW 5088   1.391   2.342   1.147
 1273SOL     OW 5089   4.279   5.288   5.773
 1273SOL    HW1 5090   4.212   5.281   5.842
 1273SOL    HW2 5091   4.282   5.381   5.754
 1273SOL     MW 5092   4.271   5.298   5.779
 1274SOL     OW 5093   5.773   1.913   5.220
 1274SOL    HW1 5094   5.846   1.930   5.159
 1274SOL    HW2 5095   5.799   1.834   5.267
 1274SOL     MW 5096   5.785   1.905   5.218
 1275SOL     OW 5097   3.665   4.073   2.065
 1275SOL    HW1 5098   3.694   4.003   2.006
 1275SOL    HW2 5099   3.719   4.062   2.143
 1275SOL     MW 5100   3.675   4.063   2.067
 1276SOL     OW 5101   1.362   3.015   4.350
 1276SOL    HW1 5102   1.315   3.008   4.266
 1276SOL    HW2 5103   1.295   3.003   4.415
 1276SOL     MW 5104   1.349   3.013   4.347
 1277SOL     OW 5105   2.617   5.893   5.311
 1277SOL    HW1 5106   2.533   5.862   5.277
 1277SOL    HW2 5107   2.613   5.876   5.404
 1277SOL     MW 5108   2.607   5.887   5.318
 1278SOL     OW 5109   3.982   5.652   5.458
 1278SOL    HW1 5110   3.972   5.654   5.554
 1278SOL    HW2 5111   3.953   5.738   5.430
 1278SOL     MW 5112   3.977   5.662   5.466
 1279SOL     OW 5113   0.502   5.060   4.400
 1279SOL    HW1 5114   0.528   5.003   4.473
 1279SOL    HW2 5115   0.583   5.099   4.370
 1279SOL     MW 5116   0.515   5.058   4.405
 1280SOL     OW 5117   0.019   1.974   4.061
 1280SOL    HW1 5118   0.045   1.884   4.084
 1280SOL    HW2 5119   0.018   2.020   4.143
 1280SOL     MW 5120   0.022   1.968   4.073
 1281SOL     OW 5121   5.363   5.929   0.392
 1281SOL    HW1 5122   5.274   5.961   0.378
 1281SOL    HW2 5123   5.363   5.896   0.481
 1281SOL     MW 5124   5.352   5.929   0.401
 1282SOL     OW 5125   4.078   1.218   4.554
 1282SOL    HW1 5126   4.076   1.263   4.469
 1282SOL    HW2 5127   4.071   1.126   4.532
 1282SOL     MW 5128   4.077   1.213   4.541
 1283SOL     OW 5129   1.084   0.718   0.990
 1283SOL    HW1 5130   0.998   0.691   0.957
 1283SOL    HW2 5131   1.071   0.807   1.020
 1283SOL     MW 5132   1.072   0.725   0.990
 1284SOL     OW 5133   2.363   4.108   4.252
 1284SOL    HW1 5134   2.457   4.108   4.275
 1284SOL    HW2 5135   2.362   4.130   4.160
 1284SOL     MW 5136   2.374   4.110   4.244
 1285SOL     OW 5137   2.511   3.451   1.945
 1285SOL    HW1 5138   2.455   3.491   1.877
 1285SOL    HW2 5139   2.551   3.377   1.901
 1285SOL     MW 5140   2.509   3.447   1.931
 1286SOL     OW 5141   5.925   6.040   5.591
 1286SOL    HW1 5142   5.993   5.985   5.633
 1286SOL    HW2 5143   5.936   6.024   5.498
 1286SOL     MW 5144   5.935   6.031   5.585
 1287SOL     OW 5145   3.446   2.869   0.056
 1287SOL    HW1 5146   3.472   2.943   0.001
 1287SOL    HW2 5147   3.528   2.827   0.079
 1287SOL     MW 5148   3.459   2.873   0.052
 1288SOL     OW 5149   1.820   1.104   2.321
 1288SOL    HW1 5150   1.913   1.128   2.326
 1288SOL    HW2 5151   1.807   1.080   2.230
 1288SOL     MW 5152   1.830   1.104   2.311
 1289SOL     OW 5153   0.751   0.277   0.535
 1289SOL    HW1 5154   0.819   0.292   0.469
 1289SOL    HW2 5155   0.785   0.206   0.589
 1289SOL     MW 5156   0.763   0.270   0.534
 1290SOL     OW 5157   0.756   5.718   2.744
 1290SOL    HW1 5158   0.671   5.748   2.710
 1290SOL    HW2 5159   0.795   5.796   2.781
 1290SOL     MW 5160   0.750   5.731   2.744
 1291SOL     OW 5161   1.895   3.046   5.768
 1291SOL    HW1 5162   1.977   3.083   5.736
 1291SOL    HW2 5163   1.900   2.954   5.744
 1291SOL     MW 5164   1.906   3.039   5.762
 1292SOL     OW 5165   4.605   1.525   4.877
 1292SOL    HW1 5166   4.567   1.583   4.810
 1292SOL    HW2 5167   4.531   1.502   4.932
 1292SOL     MW 5168   4.592   1.529   4.875
 1293SOL     OW 5169   5.738   2.299   4.976
 1293SOL    HW1 5170   5.737   2.220   5.030
 1293SOL    HW2 5171   5.827   2.331   4.982
 1293SOL     MW 5172   5.748   2.293   4.983
 1294SOL     OW 5173   4.722   4.090   3.452
 1294SOL    HW1 5174   4.647   4.048   3.496
 1294SOL    HW2 5175   4.774   4.017   3.421
 1294SOL     MW 5176   4.719   4.076   3.454
 1295SOL     OW 5177   1.297   0.940   1.070
 1295SOL    HW1 5178   1.262   0.999   1.138
 1295SOL    HW2 5179   1.381   0.979   1.047
 1295SOL     MW 5180   1.303   0.952   1.076
 1296SOL     OW 5181   4.911   5.946   4.312
 1296SOL    HW1 5182   4.996   5.932   4.269
 1296SOL    HW2 5183   4.906   6.040   4.323
 1296SOL     MW 5184   4.921   5.956   4.308
 1297SOL     OW 5185   1.247   1.079   2.014
 1297SOL    HW1 5186   1.336   1.049   2.030
 1297SOL    HW2 5187   1.224   1.042   1.930
 1297SOL     MW 5188   1.255   1.071   2.006
 1298SOL     OW 5189   2.821   2.599   2.346
 1298SOL    HW1 5190   2.739   2.563   2.381
 1298SOL    HW2 5191   2.815   2.585   2.253
 1298SOL     MW 5192   2.810   2.593   2.339
 1299SOL     OW 5193   4.837   1.490   5.405
 1299SOL    HW1 5194   4.916   1.538   5.379
 1299SOL    HW2 5195   4.835   1.498   5.500
 1299SOL     MW 5196   4.846   1.497   5.413
 1300SOL     OW 5197   2.455   5.133   5.648
 1300SOL    HW1 5198   2.479   5.047   5.613
 1300SOL    HW2 5199   2.523   5.152   5.712
 1300SOL     MW 5200   2.466   5.124   5.651
 1301SOL     OW 5201   0.431   4.384   2.204
 1301SOL    HW1 5202   0.361   4.319   2.191
 1301SOL    HW2 5203   0.496   4.338   2.255
 1301SOL     MW 5204   0.430   4.371   2.208
 1302SOL     OW 5205   4.079   1.065   1.128
 1302SOL    HW1 5206   4.164   1.082   1.085
 1302SOL    HW2 5207   4.099   1.069   1.220
 1302SOL     MW 5208   4.092   1.068   1.133
 1303SOL     OW 5209   5.481   4.697   4.244
 1303SOL    HW1 5210   5.541   4.625   4.222
 1303SOL    HW2 5211   5.396   4.665   4.219
 1303SOL     MW 5212   5.479   4.685   4.239
 1304SOL     OW 5213   0.801   3.684   0.894
 1304SOL    HW1 5214   0.877   3.721   0.848
 1304SOL    HW2 5215   0.819   3.591   0.898
 1304SOL     MW 5216   0.813   3.677   0.889
 1305SOL     OW 5217   5.959   1.143   0.259
 1305SOL    HW1 5218   5.978   1.210   0.193
 1305SOL    HW2 5219   6.014   1.167   0.333
 1305SOL     MW 5220   5.968   1.154   0.260
 1306SOL     OW 5221   5.758   0.451   1.544
 1306SOL    HW1 5222   5.832   0.486   1.494
 1306SOL    HW2 5223   5.732   0.523   1.601
 1306SOL     MW 5224   5.764   0.464   1.545
 1307SOL     OW 5225   0.449   3.693   6.065
 1307SOL    HW1 5226   0.427   3.600   6.053
 1307SOL    HW2 5227   0.371   3.739   6.039
 1307SOL     MW 5228   0.437   3.687   6.061
 1308SOL     OW 5229   5.739   0.111   6.034
 1308SOL    HW1 5230   5.796   0.044   5.996
 1308SOL    HW2 5231   5.660   0.107   5.981
 1308SOL     MW 5232   5.737   0.103   6.023
 1309SOL     OW 5233   5.734   5.741   3.113
 1309SOL    HW1 5234   5.705   5.825   3.150
 1309SOL    HW2 5235   5.803   5.765   3.053
 1309SOL     MW 5236   5.738   5.754   3.111
 1310SOL     OW 5237   3.471   5.554   0.925
 1310SOL    HW1 5238   3.384   5.512   0.929
 1310SOL    HW2 5239   3.473   5.596   0.840
 1310SOL     MW 5240   3.461   5.554   0.916
 1311SOL     OW 5241   2.075   3.088   4.057
 1311SOL    HW1 5242   2.147   3.024   4.057
 1311SOL    HW2 5243   2.001   3.040   4.021
 1311SOL     MW 5244   2.075   3.074   4.053
 1312SOL     OW 5245   3.824   5.492   3.910
 1312SOL    HW1 5246   3.802   5.569   3.963
 1312SOL    HW2 5247   3.744   5.472   3.864
 1312SOL     MW 5248   3.812   5.499   3.911
 1313SOL     OW 5249   0.498   4.598   0.424
 1313SOL    HW1 5250   0.407   4.571   0.443
 1313SOL    HW2 5251   0.501   4.601   0.329
 1313SOL     MW 5252   0.487   4.595   0.415
 1314SOL     OW 5253   5.948   5.366   0.039
 1314SOL    HW1 5254   6.018   5.328   0.091
 1314SOL    HW2 5255   5.983   5.370  -0.049
 1314SOL     MW 5256   5.960   5.362   0.035
 1315SOL     OW 5257   4.363   4.918   0.912
 1315SOL    HW1 5258   4.431   4.854   0.939
 1315SOL    HW2 5259   4.353   4.903   0.819
 1315SOL     MW 5260   4.370   4.908   0.905
 1316SOL     OW 5261   2.934   0.665   4.440
 1316SOL    HW1 5262   2.884   0.732   4.391
 1316SOL    HW2 5263   3.010   0.649   4.385
 1316SOL     MW 5264   2.936   0.671   4.427
 1317SOL     OW 5265   5.539   3.842   0.682
 1317SOL    HW1 5266   5.632   3.820   0.687
 1317SOL    HW2 5267   5.519   3.839   0.589
 1317SOL     MW 5268   5.548   3.839   0.672
 1318SOL     OW 5269   4.612   0.595   3.543
 1318SOL    HW1 5270   4.641   0.522   3.599
 1318SOL    HW2 5271   4.675   0.597   3.473
 1318SOL     MW 5272   4.623   0.586   3.541
 1319SOL     OW 5273   4.996   3.075   3.458
 1319SOL    HW1 5274   4.971   3.015   3.529
 1319SOL    HW2 5275   4.974   3.161   3.491
 1319SOL     MW 5276   4.991   3.078   3.470
 1320SOL     OW 5277   0.215   5.097   4.145
 1320SOL    HW1 5278   0.128   5.064   4.166
 1320SOL    HW2 5279   0.275   5.032   4.180
 1320SOL     MW 5280   0.212   5.086   4.152
 1321SOL     OW 5281   0.688   4.736   1.169
 1321SOL    HW1 5282   0.728   4.817   1.137
 1321SOL    HW2 5283   0.743   4.667   1.134
 1321SOL     MW 5284   0.699   4.738   1.161
 1322SOL     OW 5285   5.643   1.359   5.687
 1322SOL    HW1 5286   5.625   1.443   5.731
 1322SOL    HW2 5287   5.653   1.382   5.596
 1322SOL     MW 5288   5.642   1.372   5.682
 1323SOL     OW 5289   2.491   0.965   1.947
 1323SOL    HW1 5290   2.581   0.934   1.934
 1323SOL    HW2 5291   2.501   1.058   1.965
 1323SOL     MW 5292   2.503   0.972   1.948
 1324SOL     OW 5293   3.621   3.877   2.572
 1324SOL    HW1 5294   3.546   3.880   2.511
 1324SOL    HW2 5295   3.581   3.870   2.658
 1324SOL     MW 5296   3.607   3.877   2.575
 1325SOL     OW 5297   5.639   4.794   4.802
 1325SOL    HW1 5298   5.689   4.832   4.730
 1325SOL    HW2 5299   5.671   4.840   4.879
 1325SOL     MW 5300   5.649   4.804   4.803
 1326SOL     OW 5301   4.580   5.256   4.977
 1326SOL    HW1 5302   4.660   5.239   4.927
 1326SOL    HW2 5303   4.608   5.256   5.067
 1326SOL     MW 5304   4.593   5.254   4.981
 1327SOL     OW 5305   1.540   3.508   2.843
 1327SOL    HW1 5306   1.488   3.516   2.924
 1327SOL    HW2 5307   1.476   3.519   2.774
 1327SOL     MW 5308   1.526   3.510   2.845
 1328SOL     OW 5309   1.936   1.820   5.029
 1328SOL    HW1 5310   1.927   1.881   5.103
 1328SOL    HW2 5311   1.954   1.876   4.955
 1328SOL     MW 5312   1.937   1.834   5.029
 1329SOL     OW 5313   5.302   5.220   1.722
 1329SOL    HW1 5314   5.252   5.171   1.788
 1329SOL    HW2 5315   5.393   5.211   1.750
 1329SOL     MW 5316   5.307   5.213   1.733
 1330SOL     OW 5317   0.180   3.760   1.604
 1330SOL    HW1 5318   0.119   3.815   1.653
 1330SOL    HW2 5319   0.244   3.732   1.669
 1330SOL     MW 5320   0.180   3.764   1.618
 1331SOL     OW 5321   5.916   4.911   5.535
 1331SOL    HW1 5322   5.840   4.969   5.521
 1331SOL    HW2 5323   5.896   4.866   5.616
 1331SOL     MW 5324   5.904   4.913   5.543
 1332SOL     OW 5325   1.702   5.077   3.935
 1332SOL    HW1 5326   1.785   5.053   3.976
 1332SOL    HW2 5327   1.726   5.138   3.866
 1332SOL     MW 5328   1.715   5.081   3.932
 1333SOL     OW 5329   0.509   1.923   2.022
 1333SOL    HW1 5330   0.512   2.017   2.044
 1333SOL    HW2 5331   0.441   1.888   2.078
 1333SOL     MW 5332   0.501   1.930   2.031
 1334SOL     OW 5333   2.718   3.635   4.156
 1334SOL    HW1 5334   2.686   3.713   4.202
 1334SOL    HW2 5335   2.732   3.664   4.066
 1334SOL     MW 5336   2.716   3.648   4.151
 1335SOL     OW 5337   3.257   3.838   4.157
 1335SOL    HW1 5338   3.187   3.846   4.091
 1335SOL    HW2 5339   3.211   3.811   4.235
 1335SOL     MW 5340   3.243   3.836   4.158
 1336SOL     OW 5341   5.711   4.353   2.888
 1336SOL    HW1 5342   5.650   4.405   2.836
 1336SOL    HW2 5343   5.698   4.383   2.977
 1336SOL     MW 5344   5.702   4.363   2.892
 1337SOL     OW 5345   5.443   0.144   2.234
 1337SOL    HW1 5346   5.444   0.218   2.173
 1337SOL    HW2 5347   5.390   0.174   2.307
 1337SOL     MW 5348   5.436   0.156   2.235
 1338SOL     OW 5349   5.781   0.360   0.747
 1338SOL    HW1 5350   5.817   0.439   0.706
 1338SOL    HW2 5351   5.783   0.378   0.840
 1338SOL     MW 5352   5.785   0.372   0.753
 1339SOL     OW 5353   5.475   2.008   4.676
 1339SOL    HW1 5354   5.562   2.002   4.633
 1339SOL    HW2 5355   5.440   2.091   4.644
 1339SOL     MW 5356   5.482   2.017   4.667
 1340SOL     OW 5357   4.798   4.858   0.367
 1340SOL    HW1 5358   4.824   4.920   0.436
 1340SOL    HW2 5359   4.827   4.898   0.287
 1340SOL     MW 5360   4.805   4.870   0.366
 1341SOL     OW 5361   2.353   0.224   1.717
 1341SOL    HW1 5362   2.330   0.311   1.682
 1341SOL    HW2 5363   2.447   0.228   1.728
 1341SOL     MW 5364   2.362   0.235   1.714
 1342SOL     OW 5365   2.461   2.368   2.654
 1342SOL    HW1 5366   2.376   2.350   2.613
 1342SOL    HW2 5367   2.444   2.359   2.747
 1342SOL     MW 5368   2.449   2.364   2.660
 1343SOL     OW 5369   4.900   5.151   3.170
 1343SOL    HW1 5370   4.987   5.112   3.157
 1343SOL    HW2 5371   4.864   5.157   3.082
 1343SOL     MW 5372   4.907   5.147   3.158
 1344SOL     OW 5373   3.411   0.568   1.797
 1344SOL    HW1 5374   3.339   0.608   1.846
 1344SOL    HW2 5375   3.375   0.549   1.712
 1344SOL     MW 5376   3.398   0.571   1.793
 1345SOL     OW 5377   0.279   3.559   0.760
 1345SOL    HW1 5378   0.277   3.541   0.854
 1345SOL    HW2 5379   0.253   3.477   0.720
 1345SOL     MW 5380   0.275   3.547   0.767
 1346SOL     OW 5381   2.644   0.883   5.328
 1346SOL    HW1 5382   2.601   0.798   5.315
 1346SOL    HW2 5383   2.635   0.900   5.421
 1346SOL     MW 5384   2.638   0.875   5.337
 1347SOL     OW 5385   2.446   4.272   0.685
 1347SOL    HW1 5386   2.466   4.182   0.656
 1347SOL    HW2 5387   2.464   4.326   0.610
 1347SOL     MW 5388   2.450   4.267   0.673
 1348SOL     OW 5389   2.011   3.117   4.287
 1348SOL    HW1 5390   1.966   3.097   4.370
 1348SOL    HW2 5391   2.072   3.045   4.275
 1348SOL     MW 5392   2.012   3.106   4.296
 1349SOL     OW 5393   4.226   1.275   0.175
 1349SOL    HW1 5394   4.194   1.201   0.229
 1349SOL    HW2 5395   4.159   1.284   0.108
 1349SOL     MW 5396   4.214   1.267   0.174
 1350SOL     OW 5397   1.580   3.410   4.577
 1350SOL    HW1 5398   1.574   3.319   4.608
 1350SOL    HW2 5399   1.497   3.449   4.603
 1350SOL     MW 5400   1.569   3.403   4.584
 1351SOL     OW 5401   4.771   1.304   4.959
 1351SOL    HW1 5402   4.853   1.354   4.965
 1351SOL    HW2 5403   4.799   1.213   4.958
 1351SOL     MW 5404   4.784   1.299   4.960
 1352SOL     OW 5405   4.980   0.264   1.101
 1352SOL    HW1 5406   5.039   0.340   1.100
 1352SOL    HW2 5407   4.957   0.251   1.010
 1352SOL     MW 5408   4.984   0.272   1.090
 1353SOL     OW 5409   3.508   4.929   3.407
 1353SOL    HW1 5410   3.487   4.848   3.455
 1353SOL    HW2 5411   3.521   4.994   3.475
 1353SOL     MW 5412   3.507   4.927   3.421
 1354SOL     OW 5413   5.833   1.494   4.626
 1354SOL    HW1 5414   5.913   1.488   4.573
 1354SOL    HW2 5415   5.766   1.453   4.572
 1354SOL     MW 5416   5.835   1.488   4.613
 1355SOL     OW 5417   0.718   2.658   4.470
 1355SOL    HW1 5418   0.665   2.642   4.391
 1355SOL    HW2 5419   0.689   2.591   4.531
 1355SOL     MW 5420   0.708   2.648   4.468
 1356SOL     OW 5421   2.839   1.387   5.896
 1356SOL    HW1 5422   2.747   1.374   5.870
 1356SOL    HW2 5423   2.839   1.378   5.990
 1356SOL     MW 5424   2.828   1.384   5.904
 1357SOL     OW 5425   3.399   2.442   4.311
 1357SOL    HW1 5426   3.409   2.537   4.305
 1357SOL    HW2 5427   3.307   2.429   4.333
 1357SOL     MW 5428   3.389   2.452   4.313
 1358SOL     OW 5429   5.076   4.081   5.932
 1358SOL    HW1 5430   5.020   4.148   5.892
 1358SOL    HW2 5431   5.071   4.100   6.025
 1358SOL     MW 5432   5.068   4.091   5.938
 1359SOL     OW 5433   0.183   2.508   5.436
 1359SOL    HW1 5434   0.120   2.550   5.377
 1359SOL    HW2 5435   0.155   2.533   5.523
 1359SOL     MW 5436   0.172   2.516   5.439
 1360SOL     OW 5437   1.221   0.676   2.771
 1360SOL    HW1 5438   1.154   0.606   2.776
 1360SOL    HW2 5439   1.171   0.756   2.776
 1360SOL     MW 5440   1.207   0.677   2.772
 1361SOL     OW 5441   0.191   4.425   2.503
 1361SOL    HW1 5442   0.137   4.459   2.431
 1361SOL    HW2 5443   0.280   4.443   2.476
 1361SOL     MW 5444   0.195   4.432   2.491
 1362SOL     OW 5445   0.483   0.789   0.005
 1362SOL    HW1 5446   0.466   0.864  -0.053
 1362SOL    HW2 5447   0.475   0.824   0.092
 1362SOL     MW 5448   0.480   0.802   0.008
 1363SOL     OW 5449   1.278   4.235   1.753
 1363SOL    HW1 5450   1.289   4.257   1.660
 1363SOL    HW2 5451   1.350   4.280   1.796
 1363SOL     MW 5452   1.288   4.243   1.747
 1364SOL     OW 5453   5.835   1.959   2.641
 1364SOL    HW1 5454   5.847   1.980   2.548
 1364SOL    HW2 5455   5.741   1.964   2.654
 1364SOL     MW 5456   5.825   1.962   2.631
 1365SOL     OW 5457   5.483   4.162   2.775
 1365SOL    HW1 5458   5.514   4.142   2.686
 1365SOL    HW2 5459   5.455   4.252   2.770
 1365SOL     MW 5460   5.483   4.170   2.763
 1366SOL     OW 5461   1.466   4.803   5.505
 1366SOL    HW1 5462   1.403   4.750   5.456
 1366SOL    HW2 5463   1.484   4.752   5.583
 1366SOL     MW 5464   1.460   4.790   5.508
 1367SOL     OW 5465   3.923   0.231   2.235
 1367SOL    HW1 5466   3.996   0.175   2.208
 1367SOL    HW2 5467   3.927   0.232   2.330
 1367SOL     MW 5468   3.933   0.225   2.243
 1368SOL     OW 5469   2.598   1.167   0.743
 1368SOL    HW1 5470   2.600   1.245   0.799
 1368SOL    HW2 5471   2.682   1.168   0.698
 1368SOL     MW 5472   2.609   1.176   0.744
 1369SOL     OW 5473   1.142   3.271   2.343
 1369SOL    HW1 5474   1.198   3.345   2.367
 1369SOL    HW2 5475   1.192   3.195   2.370
 1369SOL     MW 5476   1.155   3.271   2.349
 1370SOL     OW 5477   1.748   4.764   0.365
 1370SOL    HW1 5478   1.663   4.803   0.390
 1370SOL    HW2 5479   1.812   4.828   0.395
 1370SOL     MW 5480   1.745   4.776   0.372
 1371SOL     OW 5481   0.024   4.099   4.191
 1371SOL    HW1 5482   0.104   4.110   4.242
 1371SOL    HW2 5483   0.053   4.072   4.105
 1371SOL     MW 5484   0.037   4.097   4.187
 1372SOL     OW 5485   5.157   2.763   0.219
 1372SOL    HW1 5486   5.161   2.849   0.263
 1372SOL    HW2 5487   5.221   2.769   0.149
 1372SOL     MW 5488   5.165   2.774   0.216
 1373SOL     OW 5489   0.852   5.959   0.766
 1373SOL    HW1 5490   0.833   5.871   0.731
 1373SOL    HW2 5491   0.808   6.018   0.706
 1373SOL     MW 5492   0.845   5.955   0.754
 1374SOL     OW 5493   2.274   0.434   5.100
 1374SOL    HW1 5494   2.311   0.494   5.166
 1374SOL    HW2 5495   2.291   0.477   5.018
 1374SOL     MW 5496   2.281   0.447   5.099
 1375SOL     OW 5497   6.065   3.808   1.412
 1375SOL    HW1 5498   6.148   3.857   1.417
 1375SOL    HW2 5499   6.085   3.736   1.354
 1375SOL     MW 5500   6.078   3.805   1.406
 1376SOL     OW 5501   5.758   5.442   6.009
 1376SOL    HW1 5502   5.783   5.355   5.976
 1376SOL    HW2 5503   5.840   5.483   6.033
 1376SOL     MW 5504   5.771   5.436   6.008
 1377SOL     OW 5505   0.441   1.422   2.745
 1377SOL    HW1 5506   0.445   1.331   2.712
 1377SOL    HW2 5507   0.411   1.472   2.670
 1377SOL     MW 5508   0.438   1.416   2.732
 1378SOL     OW 5509   0.055   5.344   1.334
 1378SOL    HW1 5510  -0.028   5.372   1.374
 1378SOL    HW2 5511   0.034   5.336   1.242
 1378SOL     MW 5512   0.042   5.346   1.328
 1379SOL     OW 5513   4.775   5.677   3.480
 1379SOL    HW1 5514   4.862   5.641   3.499
 1379SOL    HW2 5515   4.768   5.674   3.385
 1379SOL     MW 5516   4.784   5.672   3.471
 1380SOL     OW 5517   3.371   4.524   3.971
 1380SOL    HW1 5518   3.455   4.558   4.004
 1380SOL    HW2 5519   3.315   4.601   3.967
 1380SOL     MW 5520   3.375   4.537   3.974
 1381SOL     OW 5521   1.584   4.821   3.157
 1381SOL    HW1 5522   1.526   4.847   3.084
 1381SOL    HW2 5523   1.669   4.853   3.131
 1381SOL     MW 5524   1.587   4.828   3.145
 1382SOL     OW 5525   3.632   1.043   2.822
 1382SOL    HW1 5526   3.726   1.029   2.805
 1382SOL    HW2 5527   3.591   1.033   2.737
 1382SOL     MW 5528   3.639   1.040   2.810
 1383SOL     OW 5529   5.019   5.464   1.318
 1383SOL    HW1 5530   5.057   5.447   1.231
 1383SOL    HW2 5531   4.927   5.478   1.301
 1383SOL     MW 5532   5.013   5.463   1.305
 1384SOL     OW 5533   1.813   5.700   2.427
 1384SOL    HW1 5534   1.849   5.634   2.368
 1384SOL    HW2 5535   1.835   5.668   2.514
 1384SOL     MW 5536   1.820   5.688   2.430
 1385SOL     OW 5537   2.288   3.268   2.788
 1385SOL    HW1 5538   2.252   3.279   2.877
 1385SOL    HW2 5539   2.253   3.185   2.758
 1385SOL     MW 5540   2.280   3.260   2.795
 1386SOL     OW 5541   1.764   4.590   5.870
 1386SOL    HW1 5542   1.711   4.564   5.946
 1386SOL    HW2 5543   1.844   4.539   5.878
 1386SOL     MW 5544   1.767   4.580   5.880
 1387SOL     OW 5545   4.094   1.710   5.355
 1387SOL    HW1 5546   4.080   1.799   5.321
 1387SOL    HW2 5547   4.185   1.691   5.333
 1387SOL     MW 5548   4.103   1.718   5.348
 1388SOL     OW 5549   5.971   2.933   5.814
 1388SOL    HW1 5550   5.876   2.922   5.804
 1388SOL    HW2 5551   5.981   2.984   5.893
 1388SOL     MW 5552   5.961   2.937   5.822
 1389SOL     OW 5553   3.839   1.016   2.326
 1389SOL    HW1 5554   3.753   1.010   2.283
 1389SOL    HW2 5555   3.824   0.980   2.413
 1389SOL     MW 5556   3.826   1.011   2.331
 1390SOL     OW 5557   4.531   1.363   4.818
 1390SOL    HW1 5558   4.528   1.440   4.761
 1390SOL    HW2 5559   4.617   1.326   4.802
 1390SOL     MW 5560   4.541   1.368   4.809
 1391SOL     OW 5561   4.950   3.490   5.078
 1391SOL    HW1 5562   4.972   3.406   5.034
 1391SOL    HW2 5563   5.033   3.522   5.110
 1391SOL     MW 5564   4.962   3.483   5.076
 1392SOL     OW 5565   1.971   4.291   4.509
 1392SOL    HW1 5566   2.050   4.330   4.548
 1392SOL    HW2 5567   1.994   4.278   4.418
 1392SOL     MW 5568   1.983   4.294   4.503
 1393SOL     OW 5569   4.385   4.375   1.026
 1393SOL    HW1 5570   4.394   4.399   1.119
 1393SOL    HW2 5571   4.474   4.377   0.993
 1393SOL     MW 5572   4.397   4.378   1.033
 1394SOL     OW 5573   4.273   2.660   2.316
 1394SOL    HW1 5574   4.356   2.612   2.305
 1394SOL    HW2 5575   4.273   2.684   2.408
 1394SOL     MW 5576   4.283   2.657   2.326
 1395SOL     OW 5577   3.022   4.275   5.632
 1395SOL    HW1 5578   2.944   4.300   5.582
 1395SOL    HW2 5579   3.051   4.355   5.673
 1395SOL     MW 5580   3.016   4.287   5.631
 1396SOL     OW 5581   5.569   1.307   5.408
 1396SOL    HW1 5582   5.592   1.256   5.329
 1396SOL    HW2 5583   5.617   1.263   5.478
 1396SOL     MW 5584   5.578   1.295   5.407
 1397SOL     OW 5585   5.358   1.527   2.862
 1397SOL    HW1 5586   5.439   1.556   2.906
 1397SOL    HW2 5587   5.381   1.528   2.770
 1397SOL     MW 5588   5.371   1.530   2.856
 1398SOL     OW 5589   5.548   3.057   0.248
 1398SOL    HW1 5590   5.617   3.071   0.183
 1398SOL    HW2 5591   5.508   2.974   0.224
 1398SOL     MW 5592   5.551   3.049   0.238
 1399SOL     OW 5593   4.646   3.783   2.001
 1399SOL    HW1 5594   4.647   3.705   2.058
 1399SOL    HW2 5595   4.734   3.788   1.966
 1399SOL     MW 5596   4.657   3.774   2.004
 1400SOL     OW 5597   5.426   5.620   3.921
 1400SOL    HW1 5598   5.410   5.529   3.893
 1400SOL    HW2 5599   5.398   5.672   3.847
 1400SOL     MW 5600   5.420   5.615   3.909
 1401SOL     OW 5601   5.649   3.484   3.760
 1401SOL    HW1 5602   5.706   3.408   3.746
 1401SOL    HW2 5603   5.618   3.506   3.672
 1401SOL     MW 5604   5.652   3.477   3.748
 1402SOL     OW 5605   0.670   4.497   1.472
 1402SOL    HW1 5606   0.675   4.401   1.484
 1402SOL    HW2 5607   0.622   4.527   1.548
 1402SOL     MW 5608   0.665   4.489   1.482
 1403SOL     OW 5609   2.074   2.286   4.307
 1403SOL    HW1 5610   2.091   2.191   4.313
 1403SOL    HW2 5611   2.020   2.305   4.382
 1403SOL     MW 5612   2.070   2.276   4.317
 1404SOL     OW 5613   2.279   2.531   0.678
 1404SOL    HW1 5614   2.277   2.441   0.644
 1404SOL    HW2 5615   2.268   2.521   0.772
 1404SOL     MW 5616   2.277   2.519   0.685
 1405SOL     OW 5617   2.732   4.462   5.207
 1405SOL    HW1 5618   2.737   4.494   5.117
 1405SOL    HW2 5619   2.639   4.446   5.220
 1405SOL     MW 5620   2.722   4.464   5.198
 1406SOL     OW 5621   4.854   3.325   5.138
 1406SOL    HW1 5622   4.781   3.266   5.160
 1406SOL    HW2 5623   4.826   3.365   5.056
 1406SOL     MW 5624   4.841   3.322   5.131
 1407SOL     OW 5625   2.607   2.212   2.165
 1407SOL    HW1 5626   2.559   2.270   2.106
 1407SOL    HW2 5627   2.548   2.197   2.237
 1407SOL     MW 5628   2.594   2.217   2.166
 1408SOL     OW 5629   0.210   5.397   0.377
 1408SOL    HW1 5630   0.219   5.463   0.308
 1408SOL    HW2 5631   0.117   5.392   0.394
 1408SOL     MW 5632   0.200   5.404   0.371
 1409SOL     OW 5633   3.355   5.025   3.228
 1409SOL    HW1 5634   3.302   5.080   3.171
 1409SOL    HW2 5635   3.373   5.080   3.303
 1409SOL     MW 5636   3.351   5.038   3.230
 1410SOL     OW 5637   3.278   0.074   2.357
 1410SOL    HW1 5638   3.266   0.133   2.282
 1410SOL    HW2 5639   3.314   0.130   2.425
 1410SOL     MW 5640   3.281   0.088   2.356
 1411SOL     OW 5641   5.934   4.719   6.003
 1411SOL    HW1 5642   5.926   4.813   5.985
 1411SOL    HW2 5643   5.883   4.707   6.082
 1411SOL     MW 5644   5.927   4.729   6.010
 1412SOL     OW 5645   3.948   4.378   0.759
 1412SOL    HW1 5646   3.946   4.285   0.784
 1412SOL    HW2 5647   3.856   4.401   0.747
 1412SOL     MW 5648   3.937   4.370   0.761
 1413SOL     OW 5649   3.747   0.808   3.788
 1413SOL    HW1 5650   3.765   0.828   3.881
 1413SOL    HW2 5651   3.712   0.889   3.753
 1413SOL     MW 5652   3.745   0.820   3.795
 1414SOL     OW 5653   0.834   3.599   1.315
 1414SOL    HW1 5654   0.763   3.550   1.273
 1414SOL    HW2 5655   0.820   3.586   1.408
 1414SOL     MW 5656   0.824   3.592   1.321
 1415SOL     OW 5657   5.275   0.129   0.999
 1415SOL    HW1 5658   5.357   0.091   0.966
 1415SOL    HW2 5659   5.286   0.133   1.093
 1415SOL     MW 5660   5.286   0.125   1.006
 1416SOL     OW 5661   0.779   4.211   2.350
 1416SOL    HW1 5662   0.784   4.289   2.293
 1416SOL    HW2 5663   0.748   4.245   2.433
 1416SOL     MW 5664   0.776   4.225   2.353
 1417SOL     OW 5665   5.023   2.490   4.542
 1417SOL    HW1 5666   5.018   2.586   4.551
 1417SOL    HW2 5667   5.029   2.476   4.449
 1417SOL     MW 5668   5.023   2.501   4.532
 1418SOL     OW 5669   0.563   2.569   0.603
 1418SOL    HW1 5670   0.548   2.611   0.518
 1418SOL    HW2 5671   0.585   2.642   0.661
 1418SOL     MW 5672   0.564   2.583   0.600
 1419SOL     OW 5673   3.583   0.197   2.915
 1419SOL    HW1 5674   3.595   0.269   2.979
 1419SOL    HW2 5675   3.559   0.122   2.968
 1419SOL     MW 5676   3.581   0.197   2.929
 1420SOL     OW 5677   0.222   1.162   4.125
 1420SOL    HW1 5678   0.189   1.073   4.136
 1420SOL    HW2 5679   0.144   1.216   4.121
 1420SOL     MW 5680   0.209   1.158   4.126
 1421SOL     OW 5681   3.550   0.187   0.058
 1421SOL    HW1 5682   3.604   0.164   0.134
 1421SOL    HW2 5683   3.464   0.204   0.094
 1421SOL     MW 5684   3.546   0.186   0.071
 1422SOL     OW 5685   4.577   3.012   1.348
 1422SOL    HW1 5686   4.526   2.933   1.370
 1422SOL    HW2 5687   4.559   3.071   1.421
 1422SOL     MW 5688   4.568   3.009   1.360
 1423SOL     OW 5689   4.996   2.954   1.555
 1423SOL    HW1 5690   5.085   2.971   1.520
 1423SOL    HW2 5691   5.002   2.977   1.647
 1423SOL     MW 5692   5.008   2.959   1.562
 1424SOL     OW 5693   3.081   3.098   0.152
 1424SOL    HW1 5694   3.082   3.194   0.145
 1424SOL    HW2 5695   3.126   3.069   0.074
 1424SOL     MW 5696   3.087   3.107   0.142
 1425SOL     OW 5697   5.572   0.136   2.532
 1425SOL    HW1 5698   5.543   0.087   2.610
 1425SOL    HW2 5699   5.513   0.210   2.528
 1425SOL     MW 5700   5.562   0.138   2.541
 1426SOL     OW 5701   1.019   3.171   4.302
 1426SOL    HW1 5702   0.935   3.190   4.344
 1426SOL    HW2 5703   1.001   3.178   4.210
 1426SOL     MW 5704   1.007   3.174   4.297
 1427SOL     OW 5705   0.718   2.228   1.658
 1427SOL    HW1 5706   0.808   2.199   1.676
 1427SOL    HW2 5707   0.665   2.150   1.673
 1427SOL     MW 5708   0.723   2.215   1.662
 1428SOL     OW 5709   3.032   3.018   0.386
 1428SOL    HW1 5710   3.038   2.978   0.474
 1428SOL    HW2 5711   3.077   2.956   0.329
 1428SOL     MW 5712   3.038   3.006   0.390
 1429SOL     OW 5713   5.507   0.555   1.060
 1429SOL    HW1 5714   5.417   0.576   1.086
 1429SOL    HW2 5715   5.556   0.553   1.142
 1429SOL     MW 5716   5.502   0.557   1.073
 1430SOL     OW 5717   2.701   5.175   2.818
 1430SOL    HW1 5718   2.764   5.112   2.853
 1430SOL    HW2 5719   2.728   5.188   2.727
 1430SOL     MW 5720   2.712   5.169   2.811
 1431SOL     OW 5721   2.386   2.900   1.507
 1431SOL    HW1 5722   2.296   2.869   1.522
 1431SOL    HW2 5723   2.376   2.991   1.483
 1431SOL     MW 5724   2.374   2.907   1.506
 1432SOL     OW 5725   2.119   5.137   1.952
 1432SOL    HW1 5726   2.105   5.096   2.038
 1432SOL    HW2 5727   2.067   5.084   1.892
 1432SOL     MW 5728   2.111   5.126   1.956
 1433SOL     OW 5729   4.093   2.695   2.593
 1433SOL    HW1 5730   4.015   2.745   2.618
 1433SOL    HW2 5731   4.111   2.722   2.504
 1433SOL     MW 5732   4.086   2.704   2.586
 1434SOL     OW 5733   5.937   0.320   2.488
 1434SOL    HW1 5734   5.862   0.279   2.443
 1434SOL    HW2 5735   5.916   0.312   2.580
 1434SOL     MW 5736   5.925   0.314   2.493
 1435SOL     OW 5737   1.483   5.720   3.152
 1435SOL    HW1 5738   1.493   5.705   3.058
 1435SOL    HW2 5739   1.442   5.641   3.184
 1435SOL     MW 5740   1.479   5.709   3.144
 1436SOL     OW 5741   4.101   3.508   5.073
 1436SOL    HW1 5742   4.114   3.596   5.109
 1436SOL    HW2 5743   4.182   3.489   5.027
 1436SOL     MW 5744   4.112   3.516   5.072
 1437SOL     OW 5745   4.932   4.354   4.094
 1437SOL    HW1 5746   4.854   4.380   4.044
 1437SOL    HW2 5747   4.898   4.296   4.162
 1437SOL     MW 5748   4.918   4.350   4.096
 1438SOL     OW 5749   3.982   1.780   0.470
 1438SOL    HW1 5750   4.043   1.758   0.542
 1438SOL    HW2 5751   4.021   1.739   0.394
 1438SOL     MW 5752   3.994   1.773   0.470
 1439SOL     OW 5753   1.046   5.447   3.862
 1439SOL    HW1 5754   1.113   5.426   3.795
 1439SOL    HW2 5755   1.029   5.539   3.850
 1439SOL     MW 5756   1.052   5.455   3.852
 1440SOL     OW 5757   4.963   0.743   2.054
 1440SOL    HW1 5758   5.011   0.741   2.138
 1440SOL    HW2 5759   4.875   0.718   2.077
 1440SOL     MW 5760   4.959   0.740   2.067
 1441SOL     OW 5761   2.628   3.606   1.506
 1441SOL    HW1 5762   2.571   3.535   1.476
 1441SOL    HW2 5763   2.607   3.616   1.598
 1441SOL     MW 5764   2.619   3.599   1.513
 1442SOL     OW 5765   5.475   4.575   3.268
 1442SOL    HW1 5766   5.424   4.656   3.275
 1442SOL    HW2 5767   5.448   4.537   3.185
 1442SOL     MW 5768   5.465   4.580   3.259
 1443SOL     OW 5769   4.904   2.048   0.204
 1443SOL    HW1 5770   4.966   2.017   0.138
 1443SOL    HW2 5771   4.906   1.981   0.271
 1443SOL     MW 5772   4.911   2.036   0.204
 1444SOL     OW 5773   0.955   4.559   6.020
 1444SOL    HW1 5774   0.954   4.634   5.959
 1444SOL    HW2 5775   1.032   4.574   6.074
 1444SOL     MW 5776   0.964   4.570   6.019
 1445SOL     OW 5777   4.839   0.860   2.247
 1445SOL    HW1 5778   4.830   0.765   2.234
 1445SOL    HW2 5779   4.853   0.894   2.160
 1445SOL     MW 5780   4.840   0.852   2.235
 1446SOL     OW 5781   3.888   3.267   2.318
 1446SOL    HW1 5782   3.881   3.176   2.349
 1446SOL    HW2 5783   3.967   3.268   2.266
 1446SOL     MW 5784   3.897   3.256   2.316
 1447SOL     OW 5785   4.258   1.973   2.560
 1447SOL    HW1 5786   4.347   1.958   2.595
 1447SOL    HW2 5787   4.244   2.066   2.569
 1447SOL     MW 5788   4.267   1.982   2.565
 1448SOL     OW 5789   4.886   5.907   3.089
 1448SOL    HW1 5790   4.942   5.867   3.020
 1448SOL    HW2 5791   4.943   5.913   3.164
 1448SOL     MW 5792   4.900   5.902   3.089
 1449SOL     OW 5793   1.746   2.576   5.820
 1449SOL    HW1 5794   1.664   2.622   5.797
 1449SOL    HW2 5795   1.731   2.487   5.793
 1449SOL     MW 5796   1.734   2.571   5.814
 1450SOL     OW 5797   2.488   4.783   4.896
 1450SOL    HW1 5798   2.411   4.820   4.942
 1450SOL    HW2 5799   2.482   4.821   4.809
 1450SOL     MW 5800   2.478   4.792   4.891
 1451SOL     OW 5801   3.616   3.535   4.396
 1451SOL    HW1 5802   3.544   3.567   4.340
 1451SOL    HW2 5803   3.669   3.482   4.339
 1451SOL     MW 5804   3.613   3.533   4.383
 1452SOL     OW 5805   1.033   3.452   5.978
 1452SOL    HW1 5806   0.940   3.465   5.998
 1452SOL    HW2 5807   1.035   3.448   5.883
 1452SOL     MW 5808   1.022   3.453   5.969
 1453SOL     OW 5809   1.913   2.847   2.162
 1453SOL    HW1 5810   1.914   2.751   2.149
 1453SOL    HW2 5811   1.922   2.882   2.075
 1453SOL     MW 5812   1.914   2.839   2.150
 1454SOL     OW 5813   5.534   4.534   5.998
 1454SOL    HW1 5814   5.457   4.573   5.956
 1454SOL    HW2 5815   5.557   4.596   6.066
 1454SOL     MW 5816   5.527   4.546   6.001
 1455SOL     OW 5817   4.146   3.294   4.392
 1455SOL    HW1 5818   4.146   3.389   4.378
 1455SOL    HW2 5819   4.179   3.284   4.481
 1455SOL     MW 5820   4.150   3.304   4.401
 1456SOL     OW 5821   2.331   4.547   3.075
 1456SOL    HW1 5822   2.347   4.501   3.158
 1456SOL    HW2 5823   2.243   4.520   3.050
 1456SOL     MW 5824   2.322   4.538   3.082
 1457SOL     OW 5825   1.382   3.948   4.128
 1457SOL    HW1 5826   1.388   4.044   4.119
 1457SOL    HW2 5827   1.400   3.932   4.220
 1457SOL     MW 5828   1.385   3.958   4.138
 1458SOL     OW 5829   4.429   0.551   5.438
 1458SOL    HW1 5830   4.454   0.589   5.523
 1458SOL    HW2 5831   4.404   0.462   5.460
 1458SOL     MW 5832   4.429   0.545   5.451
 1459SOL     OW 5833   0.680   0.990   1.750
 1459SOL    HW1 5834   0.680   0.939   1.668
 1459SOL    HW2 5835   0.615   0.946   1.804
 1459SOL     MW 5836   0.672   0.978   1.746
 1460SOL     OW 5837   1.338   2.158   0.257
 1460SOL    HW1 5838   1.425   2.193   0.236
 1460SOL    HW2 5839   1.343   2.137   0.349
 1460SOL     MW 5840   1.349   2.160   0.265
 1461SOL     OW 5841   0.052   1.399   5.980
 1461SOL    HW1 5842   0.144   1.394   6.007
 1461SOL    HW2 5843   0.015   1.466   6.035
 1461SOL     MW 5844   0.059   1.406   5.990
 1462SOL     OW 5845   5.027   2.633   0.837
 1462SOL    HW1 5846   4.941   2.664   0.806
 1462SOL    HW2 5847   5.009   2.594   0.921
 1462SOL     MW 5848   5.014   2.632   0.843
 1463SOL     OW 5849   5.490   4.918   1.662
 1463SOL    HW1 5850   5.488   4.827   1.693
 1463SOL    HW2 5851   5.492   4.969   1.742
 1463SOL     MW 5852   5.490   4.913   1.675
 1464SOL     OW 5853   1.995   0.953   0.386
 1464SOL    HW1 5854   1.993   1.020   0.455
 1464SOL    HW2 5855   1.926   0.893   0.410
 1464SOL     MW 5856   1.987   0.954   0.397
 1465SOL     OW 5857   0.820   2.220   4.222
 1465SOL    HW1 5858   0.856   2.230   4.133
 1465SOL    HW2 5859   0.896   2.222   4.278
 1465SOL     MW 5860   0.833   2.222   4.218
 1466SOL     OW 5861   6.017   1.224   1.816
 1466SOL    HW1 5862   6.061   1.157   1.764
 1466SOL    HW2 5863   6.050   1.306   1.781
 1466SOL     MW 5864   6.026   1.226   1.806
 1467SOL     OW 5865   0.675   1.603   0.087
 1467SOL    HW1 5866   0.719   1.520   0.064
 1467SOL    HW2 5867   0.619   1.581   0.161
 1467SOL     MW 5868   0.674   1.590   0.093
 1468SOL     OW 5869   0.531   1.908   5.982
 1468SOL    HW1 5870   0.540   1.832   5.925
 1468SOL    HW2 5871   0.507   1.871   6.066
 1468SOL     MW 5872   0.530   1.895   5.985
 1469SOL     OW 5873   1.449   0.301   4.060
 1469SOL    HW1 5874   1.528   0.264   4.101
 1469SOL    HW2 5875   1.463   0.289   3.967
 1469SOL     MW 5876   1.460   0.295   4.054
 1470SOL     OW 5877   0.715   4.567   5.774
 1470SOL    HW1 5878   0.810   4.579   5.768
 1470SOL    HW2 5879   0.690   4.533   5.689
 1470SOL     MW 5880   0.723   4.565   5.763
 1471SOL     OW 5881   0.973   5.677   1.163
 1471SOL    HW1 5882   1.053   5.717   1.128
 1471SOL    HW2 5883   0.982   5.684   1.257
 1471SOL     MW 5884   0.984   5.683   1.170
 1472SOL     OW 5885   4.979   0.726   0.845
 1472SOL    HW1 5886   5.074   0.722   0.827
 1472SOL    HW2 5887   4.975   0.743   0.938
 1472SOL     MW 5888   4.990   0.728   0.854
 1473SOL     OW 5889   3.065   4.542   2.275
 1473SOL    HW1 5890   3.052   4.446   2.276
 1473SOL    HW2 5891   3.156   4.553   2.301
 1473SOL     MW 5892   3.074   4.531   2.278
 1474SOL     OW 5893   3.367   0.223   0.577
 1474SOL    HW1 5894   3.277   0.195   0.561
 1474SOL    HW2 5895   3.389   0.183   0.660
 1474SOL     MW 5896   3.359   0.215   0.585
 1475SOL     OW 5897   1.657   4.147   1.063
 1475SOL    HW1 5898   1.725   4.208   1.031
 1475SOL    HW2 5899   1.690   4.118   1.148
 1475SOL     MW 5900   1.669   4.151   1.070
 1476SOL     OW 5901   0.490   3.328   0.263
 1476SOL    HW1 5902   0.559   3.341   0.197
 1476SOL    HW2 5903   0.486   3.234   0.275
 1476SOL     MW 5904   0.498   3.319   0.256
 1477SOL     OW 5905   3.394   4.119   4.326
 1477SOL    HW1 5906   3.346   4.070   4.259
 1477SOL    HW2 5907   3.362   4.083   4.408
 1477SOL     MW 5908   3.385   4.109   4.328
 1478SOL     OW 5909   5.434   2.513   4.404
 1478SOL    HW1 5910   5.392   2.451   4.464
 1478SOL    HW2 5911   5.521   2.476   4.390
 1478SOL     MW 5912   5.439   2.501   4.410
 1479SOL     OW 5913   5.260   6.019   2.971
 1479SOL    HW1 5914   5.272   6.113   2.987
 1479SOL    HW2 5915   5.235   6.014   2.879
 1479SOL     MW 5916   5.259   6.030   2.962
 1480SOL     OW 5917   3.185   1.033   1.138
 1480SOL    HW1 5918   3.122   1.056   1.069
 1480SOL    HW2 5919   3.198   0.940   1.128
 1480SOL     MW 5920   3.179   1.025   1.128
 1481SOL     OW 5921   5.781   1.084   3.813
 1481SOL    HW1 5922   5.865   1.048   3.782
 1481SOL    HW2 5923   5.778   1.058   3.905
 1481SOL     MW 5924   5.791   1.077   3.820
 1482SOL     OW 5925   3.762   6.092   0.791
 1482SOL    HW1 5926   3.783   6.045   0.710
 1482SOL    HW2 5927   3.774   6.027   0.859
 1482SOL     MW 5928   3.766   6.079   0.789
 1483SOL     OW 5929   4.245   4.599   0.865
 1483SOL    HW1 5930   4.328   4.641   0.841
 1483SOL    HW2 5931   4.254   4.582   0.958
 1483SOL     MW 5932   4.256   4.602   0.873
 1484SOL     OW 5933   0.404   4.777   4.842
 1484SOL    HW1 5934   0.459   4.851   4.816
 1484SOL    HW2 5935   0.386   4.731   4.761
 1484SOL     MW 5936   0.408   4.781   4.829
 1485SOL     OW 5937   1.668   4.915   1.047
 1485SOL    HW1 5938   1.713   4.958   0.974
 1485SOL    HW2 5939   1.703   4.827   1.047
 1485SOL     MW 5940   1.677   4.910   1.038
 1486SOL     OW 5941   2.736   2.535   1.594
 1486SOL    HW1 5942   2.659   2.528   1.537
 1486SOL    HW2 5943   2.705   2.503   1.678
 1486SOL     MW 5944   2.723   2.530   1.597
 1487SOL     OW 5945   5.218   1.813   4.300
 1487SOL    HW1 5946   5.291   1.801   4.238
 1487SOL    HW2 5947   5.253   1.783   4.383
 1487SOL     MW 5948   5.231   1.808   4.302
 1488SOL     OW 5949   3.741   0.877   4.241
 1488SOL    HW1 5950   3.803   0.883   4.168
 1488SOL    HW2 5951   3.795   0.853   4.316
 1488SOL     MW 5952   3.755   0.875   4.241
 1489SOL     OW 5953   2.047   4.440   4.225
 1489SOL    HW1 5954   1.976   4.387   4.263
 1489SOL    HW2 5955   2.057   4.407   4.137
 1489SOL     MW 5956   2.040   4.430   4.219
 1490SOL     OW 5957   4.255   2.859   0.986
 1490SOL    HW1 5958   4.318   2.922   1.023
 1490SOL    HW2 5959   4.175   2.877   1.033
 1490SOL     MW 5960   4.254   2.869   0.996
 1491SOL     OW 5961   4.126   2.847   1.253
 1491SOL    HW1 5962   4.112   2.928   1.203
 1491SOL    HW2 5963   4.114   2.872   1.343
 1491SOL     MW 5964   4.123   2.860   1.257
 1492SOL     OW 5965   4.710   4.112   2.101
 1492SOL    HW1 5966   4.635   4.082   2.152
 1492SOL    HW2 5967   4.771   4.145   2.166
 1492SOL     MW 5968   4.708   4.112   2.115
 1493SOL     OW 5969   2.657   5.733   5.156
 1493SOL    HW1 5970   2.603   5.726   5.235
 1493SOL    HW2 5971   2.682   5.644   5.136
 1493SOL     MW 5972   2.653   5.722   5.163
 1494SOL     OW 5973   3.657   4.764   2.929
 1494SOL    HW1 5974   3.710   4.692   2.967
 1494SOL    HW2 5975   3.652   4.828   2.998
 1494SOL     MW 5976   3.663   4.763   2.941
 1495SOL     OW 5977   1.957   3.109   2.339
 1495SOL    HW1 5978   1.970   3.071   2.252
 1495SOL    HW2 5979   1.866   3.092   2.359
 1495SOL     MW 5980   1.948   3.102   2.331
 1496SOL     OW 5981   2.493   4.812   5.082
 1496SOL    HW1 5982   2.494   4.779   5.172
 1496SOL    HW2 5983   2.585   4.817   5.058
 1496SOL     MW 5984   2.504   4.809   5.090
 1497SOL     OW 5985   2.734   4.928   3.189
 1497SOL    HW1 5986   2.674   4.995   3.223
 1497SOL    HW2 5987   2.778   4.894   3.265
 1497SOL     MW 5988   2.732   4.932   3.202
 1498SOL     OW 5989   4.619   0.626   5.700
 1498SOL    HW1 5990   4.667   0.700   5.664
 1498SOL    HW2 5991   4.617   0.642   5.794
 1498SOL     MW 5992   4.625   0.637   5.707
 1499SOL     OW 5993   2.490   2.588   1.936
 1499SOL    HW1 5994   2.480   2.519   2.002
 1499SOL    HW2 5995   2.480   2.543   1.853
 1499SOL     MW 5996   2.488   2.574   1.934
 1500SOL     OW 5997   4.625   4.942   6.014
 1500SOL    HW1 5998   4.567   4.974   6.084
 1500SOL    HW2 5999   4.603   4.995   5.939
 1500SOL     MW 6000   4.616   4.953   6.014
 1501SOL     OW 6001   3.610   1.174   5.198
 1501SOL    HW1 6002   3.556   1.246   5.163
 1501SOL    HW2 6003   3.603   1.182   5.292
 1501SOL     MW 6004   3.603   1.183   5.205
 1502SOL     OW 6005   2.838   4.405   2.093
 1502SOL    HW1 6006   2.824   4.496   2.122
 1502SOL    HW2 6007   2.854   4.413   2.000
 1502SOL     MW 6008   2.838   4.417   2.086
 1503SOL     OW 6009   4.524   2.604   1.841
 1503SOL    HW1 6010   4.505   2.691   1.876
 1503SOL    HW2 6011   4.523   2.615   1.747
 1503SOL     MW 6012   4.522   2.616   1.834
 1504SOL     OW 6013   1.287   5.693   3.636
 1504SOL    HW1 6014   1.210   5.640   3.611
 1504SOL    HW2 6015   1.276   5.707   3.729
 1504SOL     MW 6016   1.276   5.688   3.644
 1505SOL     OW 6017   4.005   1.316   2.522
 1505SOL    HW1 6018   3.950   1.392   2.498
 1505SOL    HW2 6019   4.039   1.337   2.608
 1505SOL     MW 6020   4.002   1.328   2.529
 1506SOL     OW 6021   4.781   3.564   2.707
 1506SOL    HW1 6022   4.852   3.630   2.702
 1506SOL    HW2 6023   4.791   3.512   2.629
 1506SOL     MW 6024   4.791   3.566   2.697
 1507SOL     OW 6025   1.407   1.309   4.336
 1507SOL    HW1 6026   1.472   1.321   4.406
 1507SOL    HW2 6027   1.382   1.218   4.342
 1507SOL     MW 6028   1.412   1.300   4.345
 1508SOL     OW 6029   2.920   2.912   1.689
 1508SOL    HW1 6030   2.837   2.888   1.646
 1508SOL    HW2 6031   2.905   2.895   1.781
 1508SOL     MW 6032   2.908   2.907   1.694
 1509SOL     OW 6033   1.104   0.699   4.639
 1509SOL    HW1 6034   1.192   0.725   4.668
 1509SOL    HW2 6035   1.111   0.691   4.545
 1509SOL     MW 6036   1.115   0.701   4.631
 1510SOL     OW 6037   0.128   2.835   5.790
 1510SOL    HW1 6038   0.085   2.911   5.751
 1510SOL    HW2 6039   0.106   2.840   5.882
 1510SOL     MW 6040   0.120   2.845   5.796
 1511SOL     OW 6041   4.065   3.381   2.420
 1511SOL    HW1 6042   4.056   3.427   2.504
 1511SOL    HW2 6043   4.055   3.450   2.355
 1511SOL     MW 6044   4.063   3.395   2.423
 1512SOL     OW 6045   1.699   1.519   2.174
 1512SOL    HW1 6046   1.607   1.493   2.167
 1512SOL    HW2 6047   1.717   1.518   2.268
 1512SOL     MW 6048   1.690   1.516   2.185
 1513SOL     OW 6049   1.932   4.610   3.355
 1513SOL    HW1 6050   1.981   4.545   3.406
 1513SOL    HW2 6051   1.848   4.616   3.399
 1513SOL     MW 6052   1.928   4.603   3.366
 1514SOL     OW 6053   1.531   2.488   0.749
 1514SOL    HW1 6054   1.477   2.449   0.680
 1514SOL    HW2 6055   1.529   2.424   0.819
 1514SOL     MW 6056   1.524   2.475   0.749
 1515SOL     OW 6057   1.717   0.450   4.129
 1515SOL    HW1 6058   1.809   0.457   4.157
 1515SOL    HW2 6059   1.722   0.451   4.034
 1515SOL     MW 6060   1.729   0.451   4.121
 1516SOL     OW 6061   0.234   4.558   5.928
 1516SOL    HW1 6062   0.305   4.521   5.982
 1516SOL    HW2 6063   0.161   4.567   5.988
 1516SOL     MW 6064   0.234   4.555   5.942
 1517SOL     OW 6065   3.223   1.098   3.580
 1517SOL    HW1 6066   3.276   1.176   3.602
 1517SOL    HW2 6067   3.200   1.111   3.489
 1517SOL     MW 6068   3.226   1.109   3.572
 1518SOL     OW 6069   4.385   3.818   4.967
 1518SOL    HW1 6070   4.346   3.897   4.928
 1518SOL    HW2 6071   4.330   3.748   4.936
 1518SOL     MW 6072   4.374   3.819   4.958
 1519SOL     OW 6073   5.112   3.819   3.433
 1519SOL    HW1 6074   5.039   3.773   3.476
 1519SOL    HW2 6075   5.179   3.823   3.500
 1519SOL     MW 6076   5.111   3.813   3.446
 1520SOL     OW 6077   2.421   2.728   3.172
 1520SOL    HW1 6078   2.381   2.667   3.234
 1520SOL    HW2 6079   2.432   2.677   3.093
 1520SOL     MW 6080   2.418   2.715   3.170
 1521SOL     OW 6081   2.872   6.054   1.300
 1521SOL    HW1 6082   2.809   5.998   1.348
 1521SOL    HW2 6083   2.864   6.026   1.210
 1521SOL     MW 6084   2.863   6.044   1.296
 1522SOL     OW 6085   0.522   0.290   1.516
 1522SOL    HW1 6086   0.582   0.216   1.498
 1522SOL    HW2 6087   0.577   0.356   1.555
 1522SOL     MW 6088   0.536   0.289   1.518
 1523SOL     OW 6089   3.554   2.808   0.326
 1523SOL    HW1 6090   3.633   2.753   0.322
 1523SOL    HW2 6091   3.500   2.765   0.392
 1523SOL     MW 6092   3.557   2.796   0.333
 1524SOL     OW 6093   0.054   1.758   5.551
 1524SOL    HW1 6094   0.139   1.784   5.514
 1524SOL    HW2 6095   0.035   1.824   5.616
 1524SOL     MW 6096   0.062   1.769   5.554
 1525SOL     OW 6097   5.943   5.702   1.701
 1525SOL    HW1 6098   5.939   5.786   1.748
 1525SOL    HW2 6099   5.878   5.711   1.632
 1525SOL     MW 6100   5.934   5.714   1.698
 1526SOL     OW 6101   0.707   5.516   0.542
 1526SOL    HW1 6102   0.655   5.448   0.586
 1526SOL    HW2 6103   0.763   5.469   0.483
 1526SOL     MW 6104   0.707   5.502   0.540
 1527SOL     OW 6105   5.356   2.013   2.377
 1527SOL    HW1 6106   5.295   2.070   2.328
 1527SOL    HW2 6107   5.334   2.028   2.468
 1527SOL     MW 6108   5.346   2.022   2.381
 1528SOL     OW 6109   2.391   4.739   5.973
 1528SOL    HW1 6110   2.427   4.727   6.062
 1528SOL    HW2 6111   2.468   4.758   5.919
 1528SOL     MW 6112   2.405   4.739   5.977
 1529SOL     OW 6113   4.441   1.313   3.885
 1529SOL    HW1 6114   4.490   1.353   3.813
 1529SOL    HW2 6115   4.443   1.378   3.954
 1529SOL     MW 6116   4.447   1.325   3.884
 1530SOL     OW 6117   6.031   2.013   1.682
 1530SOL    HW1 6118   6.073   1.972   1.758
 1530SOL    HW2 6119   5.953   1.962   1.669
 1530SOL     MW 6120   6.027   2.002   1.690
 1531SOL     OW 6121   4.851   1.994   5.864
 1531SOL    HW1 6122   4.930   1.969   5.815
 1531SOL    HW2 6123   4.818   1.912   5.899
 1531SOL     MW 6124   4.857   1.981   5.862
 1532SOL     OW 6125   4.583   0.526   5.306
 1532SOL    HW1 6126   4.552   0.477   5.229
 1532SOL    HW2 6127   4.598   0.460   5.372
 1532SOL     MW 6128   4.581   0.512   5.304
 1533SOL     OW 6129   1.690   2.550   2.289
 1533SOL    HW1 6130   1.597   2.577   2.296
 1533SOL    HW2 6131   1.714   2.573   2.200
 1533SOL     MW 6132   1.681   2.556   2.279
 1534SOL     OW 6133   4.818   2.843   1.635
 1534SOL    HW1 6134   4.863   2.758   1.634
 1534SOL    HW2 6135   4.734   2.824   1.677
 1534SOL     MW 6136   4.814   2.830   1.640
 1535SOL     OW 6137   0.472   4.185   5.435
 1535SOL    HW1 6138   0.462   4.218   5.345
 1535SOL    HW2 6139   0.486   4.091   5.423
 1535SOL     MW 6140   0.473   4.178   5.422
 1536SOL     OW 6141   0.304   1.850   1.380
 1536SOL    HW1 6142   0.316   1.870   1.287
 1536SOL    HW2 6143   0.287   1.935   1.420
 1536SOL     MW 6144   0.304   1.863   1.373
 1537SOL     OW 6145   2.533   3.430   4.542
 1537SOL    HW1 6146   2.469   3.485   4.497
 1537SOL    HW2 6147   2.577   3.489   4.602
 1537SOL     MW 6148   2.530   3.444   4.544
 1538SOL     OW 6149   2.836   3.203   3.028
 1538SOL    HW1 6150   2.770   3.150   2.983
 1538SOL    HW2 6151   2.803   3.292   3.020
 1538SOL     MW 6152   2.824   3.207   3.022
 1539SOL     OW 6153   2.670   5.196   3.244
 1539SOL    HW1 6154   2.592   5.167   3.292
 1539SOL    HW2 6155   2.733   5.126   3.258
 1539SOL     MW 6156   2.668   5.184   3.252
 1540SOL     OW 6157   4.853   0.901   3.101
 1540SOL    HW1 6158   4.894   0.919   3.186
 1540SOL    HW2 6159   4.911   0.839   3.059
 1540SOL     MW 6160   4.865   0.896   3.106
 1541SOL     OW 6161   4.084   0.898   5.132
 1541SOL    HW1 6162   4.144   0.931   5.064
 1541SOL    HW2 6163   4.108   0.946   5.210
 1541SOL     MW 6164   4.094   0.908   5.133
 1542SOL     OW 6165   4.453   1.584   5.465
 1542SOL    HW1 6166   4.451   1.673   5.502
 1542SOL    HW2 6167   4.478   1.529   5.539
 1542SOL     MW 6168   4.456   1.588   5.478
 1543SOL     OW 6169   4.133   1.989   4.481
 1543SOL    HW1 6170   4.198   1.922   4.457
 1543SOL    HW2 6171   4.061   1.940   4.518
 1543SOL     MW 6172   4.133   1.975   4.483
 1544SOL     OW 6173   5.938   1.615   5.647
 1544SOL    HW1 6174   5.986   1.596   5.728
 1544SOL    HW2 6175   5.931   1.710   5.646
 1544SOL     MW 6176   5.943   1.624   5.656
 1545SOL     OW 6177   1.272   2.038   0.725
 1545SOL    HW1 6178   1.351   2.093   0.724
 1545SOL    HW2 6179   1.300   1.959   0.771
 1545SOL     MW 6180   1.285   2.035   0.731
 1546SOL     OW 6181   5.450   5.384   3.114
 1546SOL    HW1 6182   5.513   5.426   3.055
 1546SOL    HW2 6183   5.366   5.420   3.088
 1546SOL     MW 6184   5.448   5.393   3.104
 1547SOL     OW 6185   4.852   0.629   2.787
 1547SOL    HW1 6186   4.942   0.664   2.789
 1547SOL    HW2 6187   4.813   0.670   2.711
 1547SOL     MW 6188   4.858   0.638   2.778
 1548SOL     OW 6189   1.160   4.373   4.114
 1548SOL    HW1 6190   1.127   4.444   4.057
 1548SOL    HW2 6191   1.131   4.397   4.201
 1548SOL     MW 6192   1.152   4.385   4.117
 1549SOL     OW 6193   0.296   0.184   2.829
 1549SOL    HW1 6194   0.390   0.187   2.849
 1549SOL    HW2 6195   0.293   0.182   2.734
 1549SOL     MW 6196   0.307   0.184   2.820
 1550SOL     OW 6197   0.614   1.879   1.552
 1550SOL    HW1 6198   0.527   1.913   1.529
 1550SOL    HW2 6199   0.607   1.786   1.536
 1550SOL     MW 6200   0.602   1.872   1.548
 1551SOL     OW 6201   3.657   3.733   3.401
 1551SOL    HW1 6202   3.686   3.643   3.418
 1551SOL    HW2 6203   3.639   3.768   3.487
 1551SOL     MW 6204   3.659   3.726   3.413
 1552SOL     OW 6205   4.555   1.420   4.405
 1552SOL    HW1 6206   4.519   1.339   4.367
 1552SOL    HW2 6207   4.557   1.403   4.499
 1552SOL     MW 6208   4.551   1.408   4.412
 1553SOL     OW 6209   3.354   2.116   3.200
 1553SOL    HW1 6210   3.279   2.057   3.211
 1553SOL    HW2 6211   3.369   2.118   3.106
 1553SOL     MW 6212   3.347   2.109   3.190
 1554SOL     OW 6213   3.641   0.904   2.006
 1554SOL    HW1 6214   3.602   0.992   2.005
 1554SOL    HW2 6215   3.719   0.912   1.953
 1554SOL     MW 6216   3.645   0.916   2.000
 1555SOL     OW 6217   2.423   1.685   0.802
 1555SOL    HW1 6218   2.373   1.614   0.844
 1555SOL    HW2 6219   2.409   1.672   0.709
 1555SOL     MW 6220   2.415   1.675   0.796
 1556SOL     OW 6221   1.719   0.199   1.811
 1556SOL    HW1 6222   1.736   0.110   1.844
 1556SOL    HW2 6223   1.712   0.189   1.717
 1556SOL     MW 6224   1.720   0.187   1.804
 1557SOL     OW 6225   2.525   2.028   1.262
 1557SOL    HW1 6226   2.535   2.095   1.331
 1557SOL    HW2 6227   2.507   2.078   1.183
 1557SOL     MW 6228   2.524   2.042   1.261
 1558SOL     OW 6229   3.749   0.699   0.661
 1558SOL    HW1 6230   3.704   0.757   0.723
 1558SOL    HW2 6231   3.806   0.757   0.613
 1558SOL     MW 6232   3.750   0.713   0.663
 1559SOL     OW 6233   3.137   3.892   5.835
 1559SOL    HW1 6234   3.055   3.843   5.825
 1559SOL    HW2 6235   3.204   3.825   5.842
 1559SOL     MW 6236   3.135   3.878   5.834
 1560SOL     OW 6237   5.028   1.484   6.047
 1560SOL    HW1 6238   5.087   1.560   6.052
 1560SOL    HW2 6239   4.973   1.492   6.124
 1560SOL     MW 6240   5.029   1.494   6.056
 1561SOL     OW 6241   0.751   0.983   1.481
 1561SOL    HW1 6242   0.810   0.974   1.405
 1561SOL    HW2 6243   0.770   0.907   1.535
 1561SOL     MW 6244   0.761   0.973   1.478
 1562SOL     OW 6245   4.485   5.406   3.900
 1562SOL    HW1 6246   4.547   5.333   3.907
 1562SOL    HW2 6247   4.489   5.448   3.985
 1562SOL     MW 6248   4.493   5.402   3.911
 1563SOL     OW 6249   6.003   0.222   5.915
 1563SOL    HW1 6250   5.913   0.245   5.942
 1563SOL    HW2 6251   6.059   0.276   5.970
 1563SOL     MW 6252   5.999   0.231   5.925
 1564SOL     OW 6253   4.459   3.335   3.786
 1564SOL    HW1 6254   4.410   3.353   3.705
 1564SOL    HW2 6255   4.549   3.355   3.763
 1564SOL     MW 6256   4.464   3.340   3.773
 1565SOL     OW 6257   1.236   0.076   5.753
 1565SOL    HW1 6258   1.256   0.157   5.800
 1565SOL    HW2 6259   1.212   0.105   5.666
 1565SOL     MW 6260   1.235   0.089   5.748
 1566SOL     OW 6261   0.612   0.775   5.635
 1566SOL    HW1 6262   0.591   0.692   5.680
 1566SOL    HW2 6263   0.595   0.756   5.544
 1566SOL     MW 6264   0.607   0.762   5.630
 1567SOL     OW 6265   0.001   4.757   5.720
 1567SOL    HW1 6266   0.080   4.739   5.669
 1567SOL    HW2 6267   0.032   4.807   5.795
 1567SOL     MW 6268   0.014   4.761   5.723
 1568SOL     OW 6269   1.006   1.459   2.623
 1568SOL    HW1 6270   0.988   1.422   2.710
 1568SOL    HW2 6271   1.076   1.521   2.639
 1568SOL     MW 6272   1.012   1.462   2.636
 1569SOL     OW 6273   4.013   2.409   4.162
 1569SOL    HW1 6274   4.072   2.481   4.183
 1569SOL    HW2 6275   4.069   2.333   4.154
 1569SOL     MW 6276   4.027   2.409   4.164
 1570SOL     OW 6277   4.713   3.830   2.578
 1570SOL    HW1 6278   4.657   3.772   2.526
 1570SOL    HW2 6279   4.699   3.917   2.541
 1570SOL     MW 6280   4.704   3.833   2.568
 1571SOL     OW 6281   0.456   1.810   2.492
 1571SOL    HW1 6282   0.539   1.772   2.522
 1571SOL    HW2 6283   0.432   1.758   2.417
 1571SOL     MW 6284   0.463   1.799   2.487
 1572SOL     OW 6285   0.871   1.168   1.191
 1572SOL    HW1 6286   0.893   1.076   1.170
 1572SOL    HW2 6287   0.794   1.186   1.139
 1572SOL     MW 6288   0.865   1.159   1.182
 1573SOL     OW 6289   3.775   1.353   5.044
 1573SOL    HW1 6290   3.854   1.309   5.012
 1573SOL    HW2 6291   3.781   1.344   5.139
 1573SOL     MW 6292   3.785   1.347   5.052
 1574SOL     OW 6293   4.978   5.738   2.533
 1574SOL    HW1 6294   5.065   5.757   2.569
 1574SOL    HW2 6295   4.997   5.698   2.449
 1574SOL     MW 6296   4.991   5.736   2.527
 1575SOL     OW 6297   1.933   1.080   4.502
 1575SOL    HW1 6298   1.865   1.100   4.568
 1575SOL    HW2 6299   1.904   1.125   4.424
 1575SOL     MW 6300   1.921   1.088   4.501
 1576SOL     OW 6301   2.729   2.250   1.852
 1576SOL    HW1 6302   2.819   2.219   1.866
 1576SOL    HW2 6303   2.688   2.181   1.801
 1576SOL     MW 6304   2.735   2.238   1.847
 1577SOL     OW 6305   4.747   2.306   2.591
 1577SOL    HW1 6306   4.657   2.272   2.590
 1577SOL    HW2 6307   4.777   2.289   2.679
 1577SOL     MW 6308   4.739   2.300   2.601
 1578SOL     OW 6309   3.326   5.824   1.032
 1578SOL    HW1 6310   3.394   5.770   1.074
 1578SOL    HW2 6311   3.316   5.899   1.090
 1578SOL     MW 6312   3.333   5.826   1.044
 1579SOL     OW 6313   1.107   2.581   5.128
 1579SOL    HW1 6314   1.093   2.518   5.199
 1579SOL    HW2 6315   1.142   2.528   5.057
 1579SOL     MW 6316   1.110   2.567   5.128
 1580SOL     OW 6317   5.652   4.102   4.186
 1580SOL    HW1 6318   5.634   4.013   4.156
 1580SOL    HW2 6319   5.741   4.098   4.219
 1580SOL     MW 6320   5.660   4.091   4.186
 1581SOL     OW 6321   4.982   4.506   3.226
 1581SOL    HW1 6322   4.918   4.472   3.289
 1581SOL    HW2 6323   4.980   4.444   3.155
 1581SOL     MW 6324   4.974   4.495   3.225
 1582SOL     OW 6325   2.885   1.547   4.653
 1582SOL    HW1 6326   2.831   1.601   4.711
 1582SOL    HW2 6327   2.952   1.606   4.621
 1582SOL     MW 6328   2.886   1.560   4.657
 1583SOL     OW 6329   1.368   1.354   3.672
 1583SOL    HW1 6330   1.329   1.284   3.725
 1583SOL    HW2 6331   1.348   1.433   3.719
 1583SOL     MW 6332   1.361   1.354   3.684
 1584SOL     OW 6333   5.166   4.309   4.446
 1584SOL    HW1 6334   5.232   4.243   4.422
 1584SOL    HW2 6335   5.211   4.392   4.439
 1584SOL     MW 6336   5.180   4.311   4.443
 1585SOL     OW 6337   4.764   1.309   1.129
 1585SOL    HW1 6338   4.702   1.345   1.065
 1585SOL    HW2 6339   4.827   1.262   1.076
 1585SOL     MW 6340   4.764   1.308   1.115
 1586SOL     OW 6341   2.947   2.326   0.641
 1586SOL    HW1 6342   2.852   2.325   0.622
 1586SOL    HW2 6343   2.956   2.387   0.713
 1586SOL     MW 6344   2.936   2.333   0.647
 1587SOL     OW 6345   2.550   1.694   2.339
 1587SOL    HW1 6346   2.514   1.775   2.301
 1587SOL    HW2 6347   2.641   1.694   2.312
 1587SOL     MW 6348   2.556   1.704   2.331
 1588SOL     OW 6349   3.091   4.184   2.159
 1588SOL    HW1 6350   3.151   4.135   2.217
 1588SOL    HW2 6351   3.095   4.137   2.077
 1588SOL     MW 6352   3.099   4.172   2.157
 1589SOL     OW 6353   0.357   4.681   0.801
 1589SOL    HW1 6354   0.311   4.754   0.844
 1589SOL    HW2 6355   0.348   4.698   0.709
 1589SOL     MW 6356   0.350   4.692   0.796
 1590SOL     OW 6357   3.597   0.825   1.411
 1590SOL    HW1 6358   3.533   0.779   1.357
 1590SOL    HW2 6359   3.558   0.910   1.426
 1590SOL     MW 6360   3.585   0.830   1.406
 1591SOL     OW 6361   0.179   0.516   5.721
 1591SOL    HW1 6362   0.143   0.485   5.805
 1591SOL    HW2 6363   0.103   0.522   5.664
 1591SOL     MW 6364   0.165   0.513   5.725
 1592SOL     OW 6365   3.543   4.389   6.013
 1592SOL    HW1 6366   3.607   4.447   5.971
 1592SOL    HW2 6367   3.548   4.411   6.105
 1592SOL     MW 6368   3.551   4.398   6.019
 1593SOL     OW 6369   5.262   1.652   5.421
 1593SOL    HW1 6370   5.278   1.562   5.450
 1593SOL    HW2 6371   5.283   1.650   5.328
 1593SOL     MW 6372   5.267   1.641   5.413
 1594SOL     OW 6373   1.438   2.061   0.070
 1594SOL    HW1 6374   1.352   2.035   0.104
 1594SOL    HW2 6375   1.432   2.047  -0.023
 1594SOL     MW 6376   1.427   2.056   0.063
 1595SOL     OW 6377   5.667   4.711   1.554
 1595SOL    HW1 6378   5.713   4.795   1.561
 1595SOL    HW2 6379   5.697   4.661   1.629
 1595SOL     MW 6380   5.676   4.715   1.563
 1596SOL     OW 6381   1.366   3.993   4.598
 1596SOL    HW1 6382   1.282   4.038   4.588
 1596SOL    HW2 6383   1.350   3.906   4.564
 1596SOL     MW 6384   1.354   3.988   4.593
 1597SOL     OW 6385   4.037   5.944   3.040
 1597SOL    HW1 6386   4.058   5.858   3.077
 1597SOL    HW2 6387   4.022   5.999   3.116
 1597SOL     MW 6388   4.038   5.940   3.054
 1598SOL     OW 6389   4.646   5.885   3.853
 1598SOL    HW1 6390   4.682   5.867   3.766
 1598SOL    HW2 6391   4.657   5.803   3.900
 1598SOL     MW 6392   4.652   5.873   3.848
 1599SOL     OW 6393   2.237   5.338   1.319
 1599SOL    HW1 6394   2.310   5.400   1.309
 1599SOL    HW2 6395   2.229   5.327   1.413
 1599SOL     MW 6396   2.245   5.344   1.329
 1600SOL     OW 6397   0.109   4.576   4.445
 1600SOL    HW1 6398   0.102   4.484   4.416
 1600SOL    HW2 6399   0.163   4.572   4.523
 1600SOL     MW 6400   0.115   4.564   4.451
 1601SOL     OW 6401   1.105   0.571   2.599
 1601SOL    HW1 6402   1.083   0.483   2.568
 1601SOL    HW2 6403   1.047   0.585   2.674
 1601SOL     MW 6404   1.095   0.562   2.604
 1602SOL     OW 6405   0.080   2.706   2.071
 1602SOL    HW1 6406   0.141   2.689   1.999
 1602SOL    HW2 6407   0.097   2.795   2.096
 1602SOL     MW 6408   0.090   2.714   2.065
 1603SOL     OW 6409   5.429   3.410   1.385
 1603SOL    HW1 6410   5.334   3.403   1.396
 1603SOL    HW2 6411   5.465   3.353   1.452
 1603SOL     MW 6412   5.422   3.402   1.394
 1604SOL     OW 6413   2.516   4.600   2.079
 1604SOL    HW1 6414   2.526   4.688   2.040
 1604SOL    HW2 6415   2.604   4.578   2.108
 1604SOL     MW 6416   2.528   4.608   2.077
 1605SOL     OW 6417   3.559   2.316   3.860
 1605SOL    HW1 6418   3.636   2.370   3.878
 1605SOL    HW2 6419   3.520   2.302   3.946
 1605SOL     MW 6420   3.563   2.321   3.872
 1606SOL     OW 6421   5.796   4.017   0.238
 1606SOL    HW1 6422   5.733   4.072   0.286
 1606SOL    HW2 6423   5.749   3.991   0.160
 1606SOL     MW 6424   5.782   4.020   0.235
 1607SOL     OW 6425   4.489   5.649   0.080
 1607SOL    HW1 6426   4.501   5.572   0.135
 1607SOL    HW2 6427   4.424   5.623   0.016
 1607SOL     MW 6428   4.482   5.637   0.079
 1608SOL     OW 6429   4.191   5.595   5.539
 1608SOL    HW1 6430   4.180   5.687   5.512
 1608SOL    HW2 6431   4.224   5.600   5.628
 1608SOL     MW 6432   4.193   5.607   5.547
 1609SOL     OW 6433   2.111   3.535   0.091
 1609SOL    HW1 6434   2.076   3.491   0.013
 1609SOL    HW2 6435   2.110   3.469   0.159
 1609SOL     MW 6436   2.107   3.522   0.090
 1610SOL     OW 6437   3.194   2.076   3.464
 1610SOL    HW1 6438   3.138   2.009   3.505
 1610SOL    HW2 6439   3.203   2.048   3.374
 1610SOL     MW 6440   3.189   2.064   3.458
 1611SOL     OW 6441   3.824   0.452   0.428
 1611SOL    HW1 6442   3.867   0.403   0.499
 1611SOL    HW2 6443   3.889   0.456   0.359
 1611SOL     MW 6444   3.837   0.447   0.429
 1612SOL     OW 6445   4.641   0.129   2.637
 1612SOL    HW1 6446   4.590   0.139   2.718
 1612SOL    HW2 6447   4.648   0.035   2.626
 1612SOL     MW 6448   4.635   0.119   2.646
 1613SOL     OW 6449   0.484   5.013   3.830
 1613SOL    HW1 6450   0.444   5.066   3.900
 1613SOL    HW2 6451   0.531   5.076   3.777
 1613SOL     MW 6452   0.485   5.027   3.833
 1614SOL     OW 6453   5.227   2.943   4.598
 1614SOL    HW1 6454   5.299   2.991   4.642
 1614SOL    HW2 6455   5.182   3.010   4.548
 1614SOL     MW 6456   5.231   2.957   4.598
 1615SOL     OW 6457   3.628   4.076   4.302
 1615SOL    HW1 6458   3.564   4.133   4.346
 1615SOL    HW2 6459   3.620   4.098   4.211
 1615SOL     MW 6460   3.619   4.086   4.297
 1616SOL     OW 6461   4.331   2.420   5.475
 1616SOL    HW1 6462   4.416   2.378   5.457
 1616SOL    HW2 6463   4.323   2.417   5.570
 1616SOL     MW 6464   4.341   2.414   5.484
 1617SOL     OW 6465   0.423   4.488   1.094
 1617SOL    HW1 6466   0.346   4.466   1.041
 1617SOL    HW2 6467   0.408   4.577   1.122
 1617SOL     MW 6468   0.412   4.496   1.091
 1618SOL     OW 6469   3.494   1.666   4.940
 1618SOL    HW1 6470   3.412   1.634   4.980
 1618SOL    HW2 6471   3.481   1.652   4.847
 1618SOL     MW 6472   3.482   1.660   4.934
 1619SOL     OW 6473   2.243   5.658   5.635
 1619SOL    HW1 6474   2.321   5.632   5.685
 1619SOL    HW2 6475   2.264   5.745   5.603
 1619SOL     MW 6476   2.255   5.665   5.637
 1620SOL     OW 6477   0.732   4.500   0.594
 1620SOL    HW1 6478   0.813   4.455   0.567
 1620SOL    HW2 6479   0.759   4.590   0.608
 1620SOL     MW 6480   0.746   4.505   0.593
 1621SOL     OW 6481   3.140   1.386   6.050
 1621SOL    HW1 6482   3.236   1.384   6.040
 1621SOL    HW2 6483   3.108   1.393   5.961
 1621SOL     MW 6484   3.148   1.386   6.038
 1622SOL     OW 6485   4.414   4.061   1.930
 1622SOL    HW1 6486   4.444   4.037   2.018
 1622SOL    HW2 6487   4.429   3.984   1.878
 1622SOL     MW 6488   4.419   4.049   1.935
 1623SOL     OW 6489   5.651   5.273   3.171
 1623SOL    HW1 6490   5.681   5.248   3.259
 1623SOL    HW2 6491   5.557   5.271   3.178
 1623SOL     MW 6492   5.644   5.270   3.183
 1624SOL     OW 6493   0.320   4.085   3.351
 1624SOL    HW1 6494   0.241   4.035   3.327
 1624SOL    HW2 6495   0.354   4.115   3.268
 1624SOL     MW 6496   0.314   4.082   3.338
 1625SOL     OW 6497   0.367   0.552   3.010
 1625SOL    HW1 6498   0.277   0.517   3.006
 1625SOL    HW2 6499   0.371   0.614   2.938
 1625SOL     MW 6500   0.356   0.555   3.001
 1626SOL     OW 6501   1.755   2.854   3.658
 1626SOL    HW1 6502   1.688   2.784   3.658
 1626SOL    HW2 6503   1.810   2.833   3.733
 1626SOL     MW 6504   1.754   2.843   3.667
 1627SOL     OW 6505   4.527   5.816   1.867
 1627SOL    HW1 6506   4.453   5.877   1.869
 1627SOL    HW2 6507   4.579   5.846   1.793
 1627SOL     MW 6508   4.524   5.827   1.858
 1628SOL     OW 6509   2.419   5.042   5.991
 1628SOL    HW1 6510   2.421   5.119   5.933
 1628SOL    HW2 6511   2.408   5.079   6.078
 1628SOL     MW 6512   2.418   5.056   5.994
 1629SOL     OW 6513   2.379   1.133   4.661
 1629SOL    HW1 6514   2.379   1.214   4.608
 1629SOL    HW2 6515   2.349   1.161   4.746
 1629SOL     MW 6516   2.375   1.146   4.664
 1630SOL     OW 6517   2.059   3.989   0.715
 1630SOL    HW1 6518   2.125   3.920   0.708
 1630SOL    HW2 6519   2.045   4.017   0.625
 1630SOL     MW 6520   2.065   3.984   0.704
 1631SOL     OW 6521   5.913   2.360   2.015
 1631SOL    HW1 6522   5.971   2.402   1.950
 1631SOL    HW2 6523   5.849   2.427   2.035
 1631SOL     MW 6524   5.913   2.373   2.009
 1632SOL     OW 6525   2.854   0.481   3.732
 1632SOL    HW1 6526   2.846   0.462   3.826
 1632SOL    HW2 6527   2.783   0.540   3.713
 1632SOL     MW 6528   2.845   0.486   3.741
 1633SOL     OW 6529   4.200   2.654   5.979
 1633SOL    HW1 6530   4.231   2.659   5.888
 1633SOL    HW2 6531   4.116   2.699   5.978
 1633SOL     MW 6532   4.194   2.660   5.968
 1634SOL     OW 6533   5.007   0.524   4.349
 1634SOL    HW1 6534   4.980   0.432   4.346
 1634SOL    HW2 6535   5.101   0.520   4.362
 1634SOL     MW 6536   5.015   0.512   4.350
 1635SOL     OW 6537   5.953   3.359   4.099
 1635SOL    HW1 6538   6.031   3.313   4.130
 1635SOL    HW2 6539   5.914   3.396   4.177
 1635SOL     MW 6540   5.958   3.358   4.112
 1636SOL     OW 6541   0.870   2.023   4.426
 1636SOL    HW1 6542   0.909   2.081   4.491
 1636SOL    HW2 6543   0.793   2.070   4.396
 1636SOL     MW 6544   0.866   2.035   4.430
 1637SOL     OW 6545   2.324   5.171   2.909
 1637SOL    HW1 6546   2.298   5.192   2.818
 1637SOL    HW2 6547   2.341   5.078   2.907
 1637SOL     MW 6548   2.323   5.163   2.897
 1638SOL     OW 6549   6.090   2.631   3.498
 1638SOL    HW1 6550   6.054   2.572   3.565
 1638SOL    HW2 6551   6.133   2.574   3.436
 1638SOL     MW 6552   6.090   2.617   3.499
 1639SOL     OW 6553   4.546   1.102   5.499
 1639SOL    HW1 6554   4.631   1.121   5.458
 1639SOL    HW2 6555   4.553   1.011   5.527
 1639SOL     MW 6556   4.557   1.093   5.497
 1640SOL     OW 6557   5.423   3.807   2.756
 1640SOL    HW1 6558   5.374   3.844   2.682
 1640SOL    HW2 6559   5.355   3.782   2.818
 1640SOL     MW 6560   5.409   3.809   2.754
 1641SOL     OW 6561   5.707   5.079   3.927
 1641SOL    HW1 6562   5.631   5.029   3.958
 1641SOL    HW2 6563   5.743   5.118   4.005
 1641SOL     MW 6564   5.702   5.077   3.940
 1642SOL     OW 6565   0.528   0.342   4.227
 1642SOL    HW1 6566   0.443   0.312   4.262
 1642SOL    HW2 6567   0.513   0.350   4.134
 1642SOL     MW 6568   0.515   0.340   4.220
 1643SOL     OW 6569   3.327   2.975   5.733
 1643SOL    HW1 6570   3.330   3.024   5.816
 1643SOL    HW2 6571   3.237   2.984   5.704
 1643SOL     MW 6572   3.317   2.982   5.740
 1644SOL     OW 6573   3.880   2.633   3.504
 1644SOL    HW1 6574   3.868   2.714   3.455
 1644SOL    HW2 6575   3.814   2.637   3.573
 1644SOL     MW 6576   3.871   2.643   3.506
 1645SOL     OW 6577   3.148   4.583   3.684
 1645SOL    HW1 6578   3.177   4.510   3.738
 1645SOL    HW2 6579   3.054   4.587   3.696
 1645SOL     MW 6580   3.140   4.575   3.692
 1646SOL     OW 6581   0.322   3.503   3.496
 1646SOL    HW1 6582   0.279   3.560   3.431
 1646SOL    HW2 6583   0.367   3.438   3.444
 1646SOL     MW 6584   0.322   3.503   3.482
 1647SOL     OW 6585   5.853   4.227   3.186
 1647SOL    HW1 6586   5.916   4.238   3.114
 1647SOL    HW2 6587   5.901   4.177   3.251
 1647SOL     MW 6588   5.866   4.223   3.185
 1648SOL     OW 6589   4.025   5.766   0.521
 1648SOL    HW1 6590   4.112   5.805   0.528
 1648SOL    HW2 6591   3.985   5.812   0.448
 1648SOL     MW 6592   4.031   5.776   0.513
 1649SOL     OW 6593   5.215   5.550   3.037
 1649SOL    HW1 6594   5.298   5.548   2.987
 1649SOL    HW2 6595   5.158   5.605   2.984
 1649SOL     MW 6596   5.218   5.556   3.024
 1650SOL     OW 6597   2.736   5.120   2.465
 1650SOL    HW1 6598   2.707   5.030   2.482
 1650SOL    HW2 6599   2.803   5.111   2.398
 1650SOL     MW 6600   2.741   5.108   2.459
 1651SOL     OW 6601   2.318   0.688   3.294
 1651SOL    HW1 6602   2.382   0.646   3.236
 1651SOL    HW2 6603   2.364   0.699   3.377
 1651SOL     MW 6604   2.331   0.684   3.297
 1652SOL     OW 6605   2.520   1.007   2.600
 1652SOL    HW1 6606   2.457   1.067   2.642
 1652SOL    HW2 6607   2.489   1.002   2.510
 1652SOL     MW 6608   2.508   1.014   2.594
 1653SOL     OW 6609   5.798   0.640   1.707
 1653SOL    HW1 6610   5.788   0.552   1.747
 1653SOL    HW2 6611   5.874   0.676   1.751
 1653SOL     MW 6612   5.806   0.633   1.717
 1654SOL     OW 6613   0.207   2.922   0.969
 1654SOL    HW1 6614   0.263   2.932   1.047
 1654SOL    HW2 6615   0.176   3.010   0.951
 1654SOL     MW 6616   0.210   2.934   0.976
 1655SOL     OW 6617   0.553   5.069   5.519
 1655SOL    HW1 6618   0.546   5.014   5.441
 1655SOL    HW2 6619   0.579   5.154   5.486
 1655SOL     MW 6620   0.555   5.073   5.505
 1656SOL     OW 6621   1.698   0.612   2.060
 1656SOL    HW1 6622   1.771   0.649   2.112
 1656SOL    HW2 6623   1.677   0.531   2.104
 1656SOL     MW 6624   1.704   0.607   2.072
 1657SOL     OW 6625   1.525   1.648   5.554
 1657SOL    HW1 6626   1.580   1.721   5.585
 1657SOL    HW2 6627   1.577   1.608   5.485
 1657SOL     MW 6628   1.538   1.652   5.549
 1658SOL     OW 6629   4.755   3.362   0.953
 1658SOL    HW1 6630   4.778   3.303   0.881
 1658SOL    HW2 6631   4.760   3.308   1.030
 1658SOL     MW 6632   4.758   3.348   0.953
 1659SOL     OW 6633   3.031   4.229   4.108
 1659SOL    HW1 6634   3.098   4.160   4.101
 1659SOL    HW2 6635   2.967   4.194   4.169
 1659SOL     MW 6636   3.032   4.217   4.114
 1660SOL     OW 6637   2.801   3.453   3.878
 1660SOL    HW1 6638   2.734   3.395   3.915
 1660SOL    HW2 6639   2.819   3.417   3.793
 1660SOL     MW 6640   2.795   3.442   3.873
 1661SOL     OW 6641   3.545   3.947   0.672
 1661SOL    HW1 6642   3.474   3.994   0.716
 1661SOL    HW2 6643   3.504   3.909   0.595
 1661SOL     MW 6644   3.531   3.949   0.668
 1662SOL     OW 6645   2.031   2.386   3.937
 1662SOL    HW1 6646   2.034   2.315   3.872
 1662SOL    HW2 6647   2.102   2.364   3.997
 1662SOL     MW 6648   2.040   2.374   3.936
 1663SOL     OW 6649   3.977   6.002   3.801
 1663SOL    HW1 6650   3.962   5.915   3.760
 1663SOL    HW2 6651   3.985   5.983   3.893
 1663SOL     MW 6652   3.976   5.989   3.807
 1664SOL     OW 6653   5.761   0.929   0.498
 1664SOL    HW1 6654   5.745   0.842   0.461
 1664SOL    HW2 6655   5.685   0.980   0.470
 1664SOL     MW 6656   5.750   0.925   0.490
 1665SOL     OW 6657   0.872   2.524   3.658
 1665SOL    HW1 6658   0.791   2.492   3.698
 1665SOL    HW2 6659   0.866   2.618   3.665
 1665SOL     MW 6660   0.861   2.531   3.664
 1666SOL     OW 6661   4.243   0.950   3.663
 1666SOL    HW1 6662   4.298   0.881   3.622
 1666SOL    HW2 6663   4.246   0.929   3.756
 1666SOL     MW 6664   4.250   0.939   3.669
 1667SOL     OW 6665   5.805   0.413   5.990
 1667SOL    HW1 6666   5.852   0.347   6.042
 1667SOL    HW2 6667   5.863   0.432   5.917
 1667SOL     MW 6668   5.817   0.407   5.988
 1668SOL     OW 6669   3.921   4.006   0.070
 1668SOL    HW1 6670   3.909   3.952   0.148
 1668SOL    HW2 6671   3.865   4.081   0.084
 1668SOL     MW 6672   3.913   4.008   0.081
 1669SOL     OW 6673   2.624   5.442   2.017
 1669SOL    HW1 6674   2.667   5.519   2.056
 1669SOL    HW2 6675   2.689   5.373   2.024
 1669SOL     MW 6676   2.637   5.443   2.023
 1670SOL     OW 6677   0.850   1.824   4.235
 1670SOL    HW1 6678   0.885   1.734   4.238
 1670SOL    HW2 6679   0.799   1.827   4.155
 1670SOL     MW 6680   0.848   1.813   4.226
 1671SOL     OW 6681   0.332   0.741   0.666
 1671SOL    HW1 6682   0.390   0.668   0.640
 1671SOL    HW2 6683   0.324   0.731   0.760
 1671SOL     MW 6684   0.338   0.731   0.674
 1672SOL     OW 6685   3.862   1.019   3.680
 1672SOL    HW1 6686   3.876   1.029   3.585
 1672SOL    HW2 6687   3.925   1.078   3.720
 1672SOL     MW 6688   3.871   1.027   3.673
 1673SOL     OW 6689   4.047   2.795   0.525
 1673SOL    HW1 6690   4.047   2.699   0.521
 1673SOL    HW2 6691   3.957   2.820   0.510
 1673SOL     MW 6692   4.037   2.787   0.522
 1674SOL     OW 6693   6.047   0.280   1.204
 1674SOL    HW1 6694   6.049   0.189   1.236
 1674SOL    HW2 6695   6.063   0.271   1.110
 1674SOL     MW 6696   6.049   0.268   1.196
 1675SOL     OW 6697   0.762   4.955   4.550
 1675SOL    HW1 6698   0.758   5.042   4.591
 1675SOL    HW2 6699   0.811   4.968   4.470
 1675SOL     MW 6700   0.767   4.967   4.545
 1676SOL     OW 6701   1.692   2.295   1.321
 1676SOL    HW1 6702   1.761   2.263   1.381
 1676SOL    HW2 6703   1.611   2.270   1.363
 1676SOL     MW 6704   1.691   2.288   1.334
 1677SOL     OW 6705   2.896   2.262   5.484
 1677SOL    HW1 6706   2.851   2.189   5.440
 1677SOL    HW2 6707   2.909   2.231   5.572
 1677SOL     MW 6708   2.892   2.249   5.489
 1678SOL     OW 6709   3.268   5.533   5.632
 1678SOL    HW1 6710   3.177   5.560   5.646
 1678SOL    HW2 6711   3.285   5.471   5.702
 1678SOL     MW 6712   3.259   5.529   5.642
 1679SOL     OW 6713   1.157   2.033   1.358
 1679SOL    HW1 6714   1.100   2.097   1.403
 1679SOL    HW2 6715   1.156   1.957   1.415
 1679SOL     MW 6716   1.150   2.032   1.370
 1680SOL     OW 6717   2.243   0.551   4.026
 1680SOL    HW1 6718   2.148   0.566   4.021
 1680SOL    HW2 6719   2.269   0.540   3.935
 1680SOL     MW 6720   2.235   0.552   4.014
 1681SOL     OW 6721   0.240   5.694   1.363
 1681SOL    HW1 6722   0.234   5.627   1.294
 1681SOL    HW2 6723   0.237   5.644   1.444
 1681SOL     MW 6724   0.239   5.680   1.364
 1682SOL     OW 6725   1.316   0.657   1.860
 1682SOL    HW1 6726   1.358   0.578   1.894
 1682SOL    HW2 6727   1.282   0.631   1.775
 1682SOL     MW 6728   1.317   0.644   1.854
 1683SOL     OW 6729   4.208   5.343   2.931
 1683SOL    HW1 6730   4.153   5.270   2.899
 1683SOL    HW2 6731   4.203   5.338   3.025
 1683SOL     MW 6732   4.201   5.334   2.938
 1684SOL     OW 6733   5.359   4.248   3.941
 1684SOL    HW1 6734   5.284   4.236   3.881
 1684SOL    HW2 6735   5.426   4.191   3.906
 1684SOL     MW 6736   5.358   4.240   3.929
 1685SOL     OW 6737   6.062   0.488   2.452
 1685SOL    HW1 6738   6.124   0.489   2.378
 1685SOL    HW2 6739   6.011   0.567   2.441
 1685SOL     MW 6740   6.064   0.497   2.441
 1686SOL     OW 6741   5.586   0.311   3.146
 1686SOL    HW1 6742   5.504   0.337   3.188
 1686SOL    HW2 6743   5.572   0.220   3.121
 1686SOL     MW 6744   5.574   0.303   3.148
 1687SOL     OW 6745   1.978   4.930   1.121
 1687SOL    HW1 6746   1.982   4.837   1.145
 1687SOL    HW2 6747   1.945   4.973   1.200
 1687SOL     MW 6748   1.974   4.924   1.133
 1688SOL     OW 6749   3.926   0.265   4.574
 1688SOL    HW1 6750   3.874   0.324   4.518
 1688SOL    HW2 6751   3.877   0.261   4.655
 1688SOL     MW 6752   3.914   0.272   4.577
 1689SOL     OW 6753   5.667   3.780   1.431
 1689SOL    HW1 6754   5.705   3.849   1.487
 1689SOL    HW2 6755   5.701   3.799   1.344
 1689SOL     MW 6756   5.676   3.791   1.428
 1690SOL     OW 6757   2.479   4.732   2.854
 1690SOL    HW1 6758   2.445   4.785   2.927
 1690SOL    HW2 6759   2.493   4.646   2.892
 1690SOL     MW 6760   2.477   4.728   2.868
 1691SOL     OW 6761   4.420   4.444   4.734
 1691SOL    HW1 6762   4.435   4.447   4.829
 1691SOL    HW2 6763   4.491   4.494   4.698
 1691SOL     MW 6764   4.430   4.450   4.742
 1692SOL     OW 6765   5.246   0.593   0.476
 1692SOL    HW1 6766   5.261   0.499   0.488
 1692SOL    HW2 6767   5.290   0.613   0.394
 1692SOL     MW 6768   5.253   0.584   0.467
 1693SOL     OW 6769   1.692   2.699   1.073
 1693SOL    HW1 6770   1.748   2.645   1.130
 1693SOL    HW2 6771   1.604   2.668   1.092
 1693SOL     MW 6772   1.688   2.689   1.082
 1694SOL     OW 6773   5.651   1.009   4.866
 1694SOL    HW1 6774   5.573   1.014   4.922
 1694SOL    HW2 6775   5.617   1.020   4.778
 1694SOL     MW 6776   5.637   1.011   4.862
 1695SOL     OW 6777   3.641   2.540   2.061
 1695SOL    HW1 6778   3.692   2.461   2.043
 1695SOL    HW2 6779   3.647   2.550   2.156
 1695SOL     MW 6780   3.648   2.532   2.070
 1696SOL     OW 6781   3.084   3.636   0.681
 1696SOL    HW1 6782   3.099   3.548   0.645
 1696SOL    HW2 6783   3.036   3.620   0.761
 1696SOL     MW 6784   3.080   3.623   0.687
 1697SOL     OW 6785   2.260   3.459   4.520
 1697SOL    HW1 6786   2.307   3.542   4.534
 1697SOL    HW2 6787   2.256   3.450   4.425
 1697SOL     MW 6788   2.266   3.468   4.510
 1698SOL     OW 6789   3.985   1.270   1.423
 1698SOL    HW1 6790   4.058   1.222   1.463
 1698SOL    HW2 6791   3.997   1.255   1.330
 1698SOL     MW 6792   3.996   1.262   1.417
 1699SOL     OW 6793   5.691   3.364   2.696
 1699SOL    HW1 6794   5.612   3.411   2.725
 1699SOL    HW2 6795   5.760   3.400   2.751
 1699SOL     MW 6796   5.690   3.374   2.706
 1700SOL     OW 6797   2.170   2.175   1.182
 1700SOL    HW1 6798   2.201   2.112   1.117
 1700SOL    HW2 6799   2.247   2.195   1.234
 1700SOL     MW 6800   2.183   2.169   1.180
 1701SOL     OW 6801   5.795   1.823   4.586
 1701SOL    HW1 6802   5.818   1.782   4.670
 1701SOL    HW2 6803   5.700   1.819   4.583
 1701SOL     MW 6804   5.787   1.818   4.596
 1702SOL     OW 6805   2.920   1.764   2.012
 1702SOL    HW1 6806   2.952   1.776   1.922
 1702SOL    HW2 6807   2.883   1.848   2.035
 1702SOL     MW 6808   2.920   1.775   2.004
 1703SOL     OW 6809   5.197   3.400   4.055
 1703SOL    HW1 6810   5.129   3.459   4.090
 1703SOL    HW2 6811   5.209   3.428   3.966
 1703SOL     MW 6812   5.190   3.410   4.049
 1704SOL     OW 6813   4.562   2.348   3.035
 1704SOL    HW1 6814   4.468   2.364   3.033
 1704SOL    HW2 6815   4.601   2.434   3.041
 1704SOL     MW 6816   4.555   2.360   3.035
 1705SOL     OW 6817   3.787   0.113   4.989
 1705SOL    HW1 6818   3.702   0.138   5.028
 1705SOL    HW2 6819   3.774   0.122   4.896
 1705SOL     MW 6820   3.775   0.117   4.983
 1706SOL     OW 6821   1.485   5.498   5.052
 1706SOL    HW1 6822   1.566   5.548   5.039
 1706SOL    HW2 6823   1.469   5.457   4.968
 1706SOL     MW 6824   1.493   5.499   5.041
 1707SOL     OW 6825   1.819   1.772   5.246
 1707SOL    HW1 6826   1.748   1.818   5.292
 1707SOL    HW2 6827   1.794   1.776   5.154
 1707SOL     MW 6828   1.807   1.778   5.241
 1708SOL     OW 6829   1.326   5.147   2.148
 1708SOL    HW1 6830   1.258   5.174   2.210
 1708SOL    HW2 6831   1.281   5.143   2.065
 1708SOL     MW 6832   1.313   5.150   2.146
 1709SOL     OW 6833   5.753   5.326   4.437
 1709SOL    HW1 6834   5.675   5.340   4.491
 1709SOL    HW2 6835   5.779   5.237   4.455
 1709SOL     MW 6836   5.747   5.317   4.446
 1710SOL     OW 6837   5.182   0.883   3.358
 1710SOL    HW1 6838   5.087   0.873   3.357
 1710SOL    HW2 6839   5.197   0.973   3.333
 1710SOL     MW 6840   5.172   0.892   3.355
 1711SOL     OW 6841   3.989   4.781   3.860
 1711SOL    HW1 6842   3.946   4.866   3.866
 1711SOL    HW2 6843   4.058   4.794   3.795
 1711SOL     MW 6844   3.992   4.793   3.853
 1712SOL     OW 6845   3.186   3.764   0.899
 1712SOL    HW1 6846   3.112   3.745   0.840
 1712SOL    HW2 6847   3.156   3.838   0.951
 1712SOL     MW 6848   3.173   3.770   0.898
 1713SOL     OW 6849   1.628   4.888   2.596
 1713SOL    HW1 6850   1.657   4.979   2.603
 1713SOL    HW2 6851   1.539   4.889   2.628
 1713SOL     MW 6852   1.621   4.899   2.601
 1714SOL     OW 6853   4.863   1.517   0.319
 1714SOL    HW1 6854   4.899   1.428   0.326
 1714SOL    HW2 6855   4.835   1.524   0.228
 1714SOL     MW 6856   4.864   1.507   0.309
 1715SOL     OW 6857   1.793   3.629   0.862
 1715SOL    HW1 6858   1.824   3.668   0.780
 1715SOL    HW2 6859   1.859   3.564   0.883
 1715SOL     MW 6860   1.804   3.626   0.854
 1716SOL     OW 6861   4.791   3.200   1.497
 1716SOL    HW1 6862   4.807   3.266   1.428
 1716SOL    HW2 6863   4.864   3.140   1.489
 1716SOL     MW 6864   4.802   3.201   1.488
 1717SOL     OW 6865   5.129   1.164   1.895
 1717SOL    HW1 6866   5.220   1.137   1.881
 1717SOL    HW2 6867   5.110   1.138   1.985
 1717SOL     MW 6868   5.138   1.158   1.904
 1718SOL     OW 6869   1.747   4.671   2.467
 1718SOL    HW1 6870   1.737   4.750   2.413
 1718SOL    HW2 6871   1.835   4.641   2.448
 1718SOL     MW 6872   1.757   4.677   2.458
 1719SOL     OW 6873   4.099   5.746   4.122
 1719SOL    HW1 6874   4.018   5.789   4.092
 1719SOL    HW2 6875   4.140   5.716   4.041
 1719SOL     MW 6876   4.094   5.748   4.108
 1720SOL     OW 6877   5.580   5.094   3.419
 1720SOL    HW1 6878   5.633   5.026   3.375
 1720SOL    HW2 6879   5.552   5.052   3.500
 1720SOL     MW 6880   5.583   5.080   3.423
 1721SOL     OW 6881   2.528   3.722   2.667
 1721SOL    HW1 6882   2.464   3.775   2.715
 1721SOL    HW2 6883   2.526   3.757   2.579
 1721SOL     MW 6884   2.520   3.732   2.663
 1722SOL     OW 6885   1.087   5.746   5.027
 1722SOL    HW1 6886   1.087   5.829   5.076
 1722SOL    HW2 6887   1.178   5.728   5.010
 1722SOL     MW 6888   1.098   5.754   5.031
 1723SOL     OW 6889   4.259   0.752   0.741
 1723SOL    HW1 6890   4.262   0.658   0.719
 1723SOL    HW2 6891   4.250   0.753   0.835
 1723SOL     MW 6892   4.258   0.740   0.749
 1724SOL     OW 6893   0.004   3.691   3.789
 1724SOL    HW1 6894   0.073   3.715   3.852
 1724SOL    HW2 6895   0.007   3.759   3.723
 1724SOL     MW 6896   0.013   3.702   3.789
 1725SOL     OW 6897   2.907   5.397   2.037
 1725SOL    HW1 6898   2.822   5.424   2.001
 1725SOL    HW2 6899   2.900   5.303   2.046
 1725SOL     MW 6900   2.896   5.389   2.034
 1726SOL     OW 6901   4.648   4.277   1.205
 1726SOL    HW1 6902   4.695   4.357   1.178
 1726SOL    HW2 6903   4.583   4.265   1.137
 1726SOL     MW 6904   4.646   4.285   1.193
 1727SOL     OW 6905   2.052   4.074   3.787
 1727SOL    HW1 6906   2.090   4.128   3.857
 1727SOL    HW2 6907   2.003   4.136   3.734
 1727SOL     MW 6908   2.051   4.088   3.789
 1728SOL     OW 6909   4.855   1.428   1.940
 1728SOL    HW1 6910   4.836   1.494   1.873
 1728SOL    HW2 6911   4.783   1.366   1.935
 1728SOL     MW 6912   4.844   1.428   1.931
 1729SOL     OW 6913   2.047   0.206   2.442
 1729SOL    HW1 6914   2.019   0.245   2.359
 1729SOL    HW2 6915   2.033   0.275   2.506
 1729SOL     MW 6916   2.042   0.219   2.440
 1730SOL     OW 6917   3.267   5.897   4.728
 1730SOL    HW1 6918   3.198   5.958   4.755
 1730SOL    HW2 6919   3.325   5.949   4.673
 1730SOL     MW 6920   3.265   5.910   4.725
 1731SOL     OW 6921   1.938   0.653   0.507
 1731SOL    HW1 6922   1.960   0.687   0.420
 1731SOL    HW2 6923   2.007   0.589   0.526
 1731SOL     MW 6924   1.949   0.649   0.499
 1732SOL     OW 6925   3.028   4.922   0.943
 1732SOL    HW1 6926   3.008   4.859   0.873
 1732SOL    HW2 6927   3.038   4.868   1.020
 1732SOL     MW 6928   3.026   4.908   0.943
 1733SOL     OW 6929   5.225   1.422   5.102
 1733SOL    HW1 6930   5.233   1.342   5.048
 1733SOL    HW2 6931   5.298   1.417   5.162
 1733SOL     MW 6932   5.235   1.411   5.103
 1734SOL     OW 6933   2.693   5.176   0.596
 1734SOL    HW1 6934   2.658   5.093   0.563
 1734SOL    HW2 6935   2.650   5.188   0.680
 1734SOL     MW 6936   2.684   5.167   0.602
 1735SOL     OW 6937   1.152   2.875   1.777
 1735SOL    HW1 6938   1.122   2.936   1.846
 1735SOL    HW2 6939   1.124   2.917   1.696
 1735SOL     MW 6940   1.145   2.888   1.776
 1736SOL     OW 6941   0.782   2.308   3.158
 1736SOL    HW1 6942   0.845   2.235   3.168
 1736SOL    HW2 6943   0.749   2.298   3.070
 1736SOL     MW 6944   0.786   2.298   3.149
 1737SOL     OW 6945   3.896   4.036   1.122
 1737SOL    HW1 6946   3.989   4.060   1.125
 1737SOL    HW2 6947   3.851   4.110   1.163
 1737SOL     MW 6948   3.902   4.048   1.127
 1738SOL     OW 6949   5.079   5.693   3.981
 1738SOL    HW1 6950   5.157   5.710   3.927
 1738SOL    HW2 6951   5.109   5.706   4.070
 1738SOL     MW 6952   5.092   5.696   3.985
 1739SOL     OW 6953   2.235   5.639   1.180
 1739SOL    HW1 6954   2.199   5.728   1.173
 1739SOL    HW2 6955   2.277   5.637   1.265
 1739SOL     MW 6956   2.235   5.649   1.189
 1740SOL     OW 6957   5.685   4.739   3.239
 1740SOL    HW1 6958   5.640   4.815   3.202
 1740SOL    HW2 6959   5.622   4.669   3.233
 1740SOL     MW 6960   5.672   4.740   3.233
 1741SOL     OW 6961   2.400   4.768   1.850
 1741SOL    HW1 6962   2.311   4.748   1.821
 1741SOL    HW2 6963   2.409   4.721   1.932
 1741SOL     MW 6964   2.391   4.760   1.856
 1742SOL     OW 6965   2.327   4.982   2.083
 1742SOL    HW1 6966   2.309   4.896   2.122
 1742SOL    HW2 6967   2.339   4.964   1.990
 1742SOL     MW 6968   2.326   4.969   2.076
 1743SOL     OW 6969   4.359   0.801   5.355
 1743SOL    HW1 6970   4.439   0.752   5.334
 1743SOL    HW2 6971   4.296   0.734   5.378
 1743SOL     MW 6972   4.361   0.787   5.355
 1744SOL     OW 6973   3.664   2.571   2.979
 1744SOL    HW1 6974   3.592   2.508   2.988
 1744SOL    HW2 6975   3.629   2.652   3.012
 1744SOL     MW 6976   3.651   2.573   2.984
 1745SOL     OW 6977   2.099   3.569   0.739
 1745SOL    HW1 6978   2.179   3.619   0.720
 1745SOL    HW2 6979   2.119   3.524   0.820
 1745SOL     MW 6980   2.111   3.570   0.746
 1746SOL     OW 6981   3.611   2.864   1.106
 1746SOL    HW1 6982   3.538   2.851   1.044
 1746SOL    HW2 6983   3.569   2.890   1.187
 1746SOL     MW 6984   3.597   2.865   1.108
 1747SOL     OW 6985   3.662   1.311   3.949
 1747SOL    HW1 6986   3.675   1.231   3.898
 1747SOL    HW2 6987   3.659   1.282   4.039
 1747SOL     MW 6988   3.663   1.298   3.954
 1748SOL     OW 6989   2.178   4.805   5.068
 1748SOL    HW1 6990   2.143   4.875   5.124
 1748SOL    HW2 6991   2.148   4.827   4.981
 1748SOL     MW 6992   2.170   4.816   5.065
 1749SOL     OW 6993   1.806   3.776   2.293
 1749SOL    HW1 6994   1.785   3.869   2.307
 1749SOL    HW2 6995   1.728   3.730   2.323
 1749SOL     MW 6996   1.794   3.782   2.299
 1750SOL     OW 6997   1.712   3.798   2.695
 1750SOL    HW1 6998   1.624   3.824   2.725
 1750SOL    HW2 6999   1.732   3.860   2.626
 1750SOL     MW 7000   1.703   3.808   2.690
 1751SOL     OW 7001   4.472   0.208   5.542
 1751SOL    HW1 7002   4.511   0.295   5.532
 1751SOL    HW2 7003   4.545   0.148   5.533
 1751SOL     MW 7004   4.485   0.211   5.540
 1752SOL     OW 7005   2.512   0.126   0.513
 1752SOL    HW1 7006   2.558   0.043   0.526
 1752SOL    HW2 7007   2.500   0.132   0.419
 1752SOL     MW 7008   2.516   0.117   0.503
 1753SOL     OW 7009   4.923   1.249   2.028
 1753SOL    HW1 7010   4.901   1.324   2.084
 1753SOL    HW2 7011   4.851   1.242   1.968
 1753SOL     MW 7012   4.912   1.257   2.028
 1754SOL     OW 7013   4.227   3.453   5.982
 1754SOL    HW1 7014   4.290   3.509   5.935
 1754SOL    HW2 7015   4.255   3.458   6.072
 1754SOL     MW 7016   4.238   3.460   5.987
 1755SOL     OW 7017   5.147   3.290   4.475
 1755SOL    HW1 7018   5.123   3.229   4.546
 1755SOL    HW2 7019   5.071   3.289   4.417
 1755SOL     MW 7020   5.135   3.283   4.477
 1756SOL     OW 7021   4.437   5.216   3.226
 1756SOL    HW1 7022   4.344   5.228   3.248
 1756SOL    HW2 7023   4.460   5.133   3.267
 1756SOL     MW 7024   4.428   5.207   3.234
 1757SOL     OW 7025   5.263   4.693   0.570
 1757SOL    HW1 7026   5.329   4.624   0.558
 1757SOL    HW2 7027   5.213   4.692   0.489
 1757SOL     MW 7028   5.265   4.685   0.559
 1758SOL     OW 7029   2.723   1.632   4.935
 1758SOL    HW1 7030   2.648   1.632   4.875
 1758SOL    HW2 7031   2.725   1.544   4.970
 1758SOL     MW 7032   2.714   1.622   4.932
 1759SOL     OW 7033   3.332   2.829   1.015
 1759SOL    HW1 7034   3.381   2.761   0.968
 1759SOL    HW2 7035   3.398   2.876   1.063
 1759SOL     MW 7036   3.346   2.826   1.015
 1760SOL     OW 7037   3.507   5.590   1.878
 1760SOL    HW1 7038   3.585   5.540   1.855
 1760SOL    HW2 7039   3.450   5.527   1.920
 1760SOL     MW 7040   3.510   5.576   1.880
 1761SOL     OW 7041   4.028   4.891   5.602
 1761SOL    HW1 7042   3.977   4.816   5.571
 1761SOL    HW2 7043   4.062   4.864   5.686
 1761SOL     MW 7044   4.026   4.879   5.608
 1762SOL     OW 7045   3.916   3.435   3.480
 1762SOL    HW1 7046   4.008   3.456   3.501
 1762SOL    HW2 7047   3.922   3.371   3.410
 1762SOL     MW 7048   3.928   3.430   3.474
 1763SOL     OW 7049   4.516   5.864   3.225
 1763SOL    HW1 7050   4.452   5.922   3.266
 1763SOL    HW2 7051   4.484   5.852   3.136
 1763SOL     MW 7052   4.505   5.870   3.219
 1764SOL     OW 7053   1.504   2.322   1.792
 1764SOL    HW1 7054   1.475   2.243   1.839
 1764SOL    HW2 7055   1.426   2.374   1.782
 1764SOL     MW 7056   1.491   2.319   1.797
 1765SOL     OW 7057   4.353   4.234   5.643
 1765SOL    HW1 7058   4.274   4.201   5.688
 1765SOL    HW2 7059   4.331   4.230   5.551
 1765SOL     MW 7060   4.341   4.230   5.638
 1766SOL     OW 7061   1.489   0.658   3.580
 1766SOL    HW1 7062   1.457   0.741   3.543
 1766SOL    HW2 7063   1.457   0.658   3.669
 1766SOL     MW 7064   1.481   0.668   3.586
 1767SOL     OW 7065   5.043   2.988   1.282
 1767SOL    HW1 7066   4.997   3.072   1.264
 1767SOL    HW2 7067   5.134   3.008   1.267
 1767SOL     MW 7068   5.048   3.001   1.278
 1768SOL     OW 7069   4.479   3.375   4.075
 1768SOL    HW1 7070   4.398   3.382   4.024
 1768SOL    HW2 7071   4.455   3.405   4.162
 1768SOL     MW 7072   4.466   3.379   4.079
 1769SOL     OW 7073   3.556   3.909   4.670
 1769SOL    HW1 7074   3.592   3.823   4.692
 1769SOL    HW2 7075   3.575   3.919   4.577
 1769SOL     MW 7076   3.563   3.900   4.661
 1770SOL     OW 7077   2.793   3.372   1.240
 1770SOL    HW1 7078   2.881   3.352   1.206
 1770SOL    HW2 7079   2.748   3.414   1.168
 1770SOL     MW 7080   2.798   3.374   1.228
 1771SOL     OW 7081   4.084   4.911   2.188
 1771SOL    HW1 7082   4.162   4.966   2.176
 1771SOL    HW2 7083   4.109   4.849   2.256
 1771SOL     MW 7084   4.097   4.910   2.195
 1772SOL     OW 7085   2.557   1.422   5.583
 1772SOL    HW1 7086   2.503   1.451   5.509
 1772SOL    HW2 7087   2.640   1.465   5.570
 1772SOL     MW 7088   2.560   1.431   5.572
 1773SOL     OW 7089   0.678   0.138   6.077
 1773SOL    HW1 7090   0.622   0.213   6.053
 1773SOL    HW2 7091   0.676   0.137   6.172
 1773SOL     MW 7092   0.671   0.147   6.085
 1774SOL     OW 7093   1.345   3.307   3.945
 1774SOL    HW1 7094   1.336   3.244   3.874
 1774SOL    HW2 7095   1.381   3.256   4.017
 1774SOL     MW 7096   1.348   3.294   3.945
 1775SOL     OW 7097   2.356   2.449   3.014
 1775SOL    HW1 7098   2.442   2.491   3.018
 1775SOL    HW2 7099   2.295   2.517   3.042
 1775SOL     MW 7100   2.359   2.463   3.018
 1776SOL     OW 7101   1.699   3.235   1.769
 1776SOL    HW1 7102   1.748   3.236   1.686
 1776SOL    HW2 7103   1.766   3.229   1.835
 1776SOL     MW 7104   1.713   3.234   1.766
 1777SOL     OW 7105   2.161   5.833   2.225
 1777SOL    HW1 7106   2.082   5.817   2.173
 1777SOL    HW2 7107   2.152   5.923   2.255
 1777SOL     MW 7108   2.150   5.842   2.223
 1778SOL     OW 7109   4.941   1.448   4.688
 1778SOL    HW1 7110   4.989   1.529   4.710
 1778SOL    HW2 7111   4.960   1.389   4.759
 1778SOL     MW 7112   4.949   1.451   4.699
 1779SOL     OW 7113   2.693   0.911   3.324
 1779SOL    HW1 7114   2.743   0.911   3.242
 1779SOL    HW2 7115   2.756   0.937   3.390
 1779SOL     MW 7116   2.706   0.914   3.322
 1780SOL     OW 7117   3.808   1.594   0.681
 1780SOL    HW1 7118   3.777   1.555   0.599
 1780SOL    HW2 7119   3.825   1.519   0.737
 1780SOL     MW 7120   3.806   1.580   0.678
 1781SOL     OW 7121   0.276   5.956   5.490
 1781SOL    HW1 7122   0.281   5.879   5.547
 1781SOL    HW2 7123   0.202   5.938   5.433
 1781SOL     MW 7124   0.268   5.944   5.490
 1782SOL     OW 7125   3.208   5.250   4.813
 1782SOL    HW1 7126   3.186   5.162   4.845
 1782SOL    HW2 7127   3.293   5.239   4.772
 1782SOL     MW 7128   3.216   5.238   4.812
 1783SOL     OW 7129   1.477   0.254   5.629
 1783SOL    HW1 7130   1.389   0.250   5.669
 1783SOL    HW2 7131   1.460   0.268   5.537
 1783SOL     MW 7132   1.464   0.255   5.623
 1784SOL     OW 7133   2.914   6.004   5.379
 1784SOL    HW1 7134   2.911   6.007   5.283
 1784SOL    HW2 7135   2.838   5.952   5.403
 1784SOL     MW 7136   2.905   5.998   5.370
 1785SOL     OW 7137   3.932   5.471   3.502
 1785SOL    HW1 7138   3.945   5.420   3.422
 1785SOL    HW2 7139   3.841   5.500   3.497
 1785SOL     MW 7140   3.922   5.468   3.492
 1786SOL     OW 7141   2.378   4.959   3.669
 1786SOL    HW1 7142   2.315   4.981   3.600
 1786SOL    HW2 7143   2.441   4.902   3.626
 1786SOL     MW 7144   2.378   4.955   3.655
 1787SOL     OW 7145   2.863   3.126   4.001
 1787SOL    HW1 7146   2.920   3.156   3.929
 1787SOL    HW2 7147   2.857   3.200   4.060
 1787SOL     MW 7148   2.869   3.138   3.999
 1788SOL     OW 7149   2.510   3.186   3.383
 1788SOL    HW1 7150   2.426   3.209   3.344
 1788SOL    HW2 7151   2.559   3.146   3.312
 1788SOL     MW 7152   2.506   3.184   3.370
 1789SOL     OW 7153   1.921   0.609   3.939
 1789SOL    HW1 7154   1.865   0.676   3.897
 1789SOL    HW2 7155   1.906   0.620   4.032
 1789SOL     MW 7156   1.913   0.619   3.945
 1790SOL     OW 7157   2.607   2.711   1.231
 1790SOL    HW1 7158   2.530   2.670   1.191
 1790SOL    HW2 7159   2.571   2.777   1.289
 1790SOL     MW 7160   2.593   2.714   1.233
 1791SOL     OW 7161   3.724   3.444   1.044
 1791SOL    HW1 7162   3.784   3.511   1.078
 1791SOL    HW2 7163   3.695   3.478   0.961
 1791SOL     MW 7164   3.728   3.456   1.038
 1792SOL     OW 7165   1.629   5.740   1.448
 1792SOL    HW1 7166   1.676   5.782   1.376
 1792SOL    HW2 7167   1.696   5.724   1.514
 1792SOL     MW 7168   1.642   5.743   1.447
 1793SOL     OW 7169   1.335   5.854   1.803
 1793SOL    HW1 7170   1.299   5.800   1.874
 1793SOL    HW2 7171   1.417   5.812   1.781
 1793SOL     MW 7172   1.341   5.843   1.809
 1794SOL     OW 7173   2.125   3.735   2.556
 1794SOL    HW1 7174   2.205   3.783   2.581
 1794SOL    HW2 7175   2.141   3.646   2.584
 1794SOL     MW 7176   2.137   3.731   2.562
 1795SOL     OW 7177   3.647   1.316   2.787
 1795SOL    HW1 7178   3.631   1.246   2.723
 1795SOL    HW2 7179   3.730   1.294   2.826
 1795SOL     MW 7180   3.655   1.305   2.784
 1796SOL     OW 7181   6.021   2.282   0.462
 1796SOL    HW1 7182   6.060   2.366   0.490
 1796SOL    HW2 7183   5.933   2.284   0.498
 1796SOL     MW 7184   6.015   2.292   0.469
 1797SOL     OW 7185   4.817   0.047   3.713
 1797SOL    HW1 7186   4.913   0.049   3.725
 1797SOL    HW2 7187   4.793   0.137   3.698
 1797SOL     MW 7188   4.826   0.058   3.713
 1798SOL     OW 7189   1.857   4.468   4.127
 1798SOL    HW1 7190   1.832   4.559   4.145
 1798SOL    HW2 7191   1.798   4.440   4.058
 1798SOL     MW 7192   1.847   4.476   4.121
 1799SOL     OW 7193   2.845   5.635   4.565
 1799SOL    HW1 7194   2.791   5.704   4.527
 1799SOL    HW2 7195   2.920   5.629   4.508
 1799SOL     MW 7196   2.847   5.643   4.554
 1800SOL     OW 7197   3.674   0.587   2.172
 1800SOL    HW1 7198   3.629   0.668   2.198
 1800SOL    HW2 7199   3.713   0.555   2.253
 1800SOL     MW 7200   3.673   0.593   2.185
 1801SOL     OW 7201   0.591   5.975   1.374
 1801SOL    HW1 7202   0.574   5.939   1.462
 1801SOL    HW2 7203   0.509   5.962   1.328
 1801SOL     MW 7204   0.579   5.969   1.379
 1802SOL     OW 7205   3.943   0.841   2.738
 1802SOL    HW1 7206   3.859   0.822   2.695
 1802SOL    HW2 7207   3.926   0.829   2.830
 1802SOL     MW 7208   3.931   0.837   2.744
 1803SOL     OW 7209   2.097   4.582   2.588
 1803SOL    HW1 7210   2.155   4.508   2.567
 1803SOL    HW2 7211   2.101   4.637   2.512
 1803SOL     MW 7212   2.104   4.579   2.577
 1804SOL     OW 7213   4.161   1.739   1.164
 1804SOL    HW1 7214   4.087   1.792   1.132
 1804SOL    HW2 7215   4.191   1.692   1.088
 1804SOL     MW 7216   4.155   1.740   1.151
 1805SOL     OW 7217   4.458   4.195   3.548
 1805SOL    HW1 7218   4.487   4.103   3.546
 1805SOL    HW2 7219   4.364   4.189   3.560
 1805SOL     MW 7220   4.451   4.183   3.549
 1806SOL     OW 7221   1.823   3.036   5.539
 1806SOL    HW1 7222   1.758   3.093   5.583
 1806SOL    HW2 7223   1.861   3.092   5.473
 1806SOL     MW 7224   1.819   3.050   5.537
 1807SOL     OW 7225   1.391   0.734   2.576
 1807SOL    HW1 7226   1.445   0.674   2.628
 1807SOL    HW2 7227   1.382   0.690   2.492
 1807SOL     MW 7228   1.397   0.722   2.572
 1808SOL     OW 7229   5.482   5.762   5.765
 1808SOL    HW1 7230   5.435   5.710   5.699
 1808SOL    HW2 7231   5.490   5.704   5.839
 1808SOL     MW 7232   5.477   5.748   5.765
 1809SOL     OW 7233   3.799   1.295   4.231
 1809SOL    HW1 7234   3.876   1.269   4.180
 1809SOL    HW2 7235   3.826   1.282   4.321
 1809SOL     MW 7236   3.812   1.291   4.236
 1810SOL     OW 7237   0.361   3.596   5.439
 1810SOL    HW1 7238   0.357   3.506   5.472
 1810SOL    HW2 7239   0.373   3.586   5.345
 1810SOL     MW 7240   0.362   3.584   5.432
 1811SOL     OW 7241   4.212   4.342   3.451
 1811SOL    HW1 7242   4.218   4.250   3.424
 1811SOL    HW2 7243   4.128   4.372   3.417
 1811SOL     MW 7244   4.203   4.335   3.443
 1812SOL     OW 7245   1.756   0.948   1.124
 1812SOL    HW1 7246   1.835   0.895   1.124
 1812SOL    HW2 7247   1.754   0.988   1.210
 1812SOL     MW 7248   1.765   0.947   1.134
 1813SOL     OW 7249   2.746   0.935   0.303
 1813SOL    HW1 7250   2.678   0.947   0.371
 1813SOL    HW2 7251   2.712   0.866   0.248
 1813SOL     MW 7252   2.734   0.929   0.305
 1814SOL     OW 7253   2.089   5.060   4.653
 1814SOL    HW1 7254   2.010   5.064   4.597
 1814SOL    HW2 7255   2.057   5.030   4.737
 1814SOL     MW 7256   2.075   5.057   4.656
 1815SOL     OW 7257   3.034   2.795   0.757
 1815SOL    HW1 7258   2.968   2.800   0.688
 1815SOL    HW2 7259   2.986   2.810   0.838
 1815SOL     MW 7260   3.021   2.798   0.758
 1816SOL     OW 7261   0.465   5.601   0.847
 1816SOL    HW1 7262   0.511   5.641   0.922
 1816SOL    HW2 7263   0.502   5.514   0.841
 1816SOL     MW 7264   0.475   5.596   0.855
 1817SOL     OW 7265   2.244   1.054   5.952
 1817SOL    HW1 7266   2.326   1.020   5.990
 1817SOL    HW2 7267   2.218   1.122   6.012
 1817SOL     MW 7268   2.251   1.058   5.964
 1818SOL     OW 7269   5.653   4.059   3.559
 1818SOL    HW1 7270   5.605   4.068   3.476
 1818SOL    HW2 7271   5.621   4.131   3.612
 1818SOL     MW 7272   5.643   4.068   3.555
 1819SOL     OW 7273   0.164   3.648   5.715
 1819SOL    HW1 7274   0.169   3.585   5.642
 1819SOL    HW2 7275   0.127   3.726   5.676
 1819SOL     MW 7276   0.161   3.650   5.702
 1820SOL     OW 7277   3.668   1.811   0.449
 1820SOL    HW1 7278   3.672   1.903   0.423
 1820SOL    HW2 7279   3.610   1.811   0.525
 1820SOL     MW 7280   3.661   1.822   0.455
 1821SOL     OW 7281   3.061   0.916   1.683
 1821SOL    HW1 7282   3.098   0.984   1.740
 1821SOL    HW2 7283   3.071   0.951   1.596
 1821SOL     MW 7284   3.067   0.928   1.680
 1822SOL     OW 7285   5.410   2.932   3.895
 1822SOL    HW1 7286   5.406   2.908   3.801
 1822SOL    HW2 7287   5.353   3.007   3.902
 1822SOL     MW 7288   5.402   2.938   3.884
 1823SOL     OW 7289   4.822   3.331   5.669
 1823SOL    HW1 7290   4.908   3.360   5.700
 1823SOL    HW2 7291   4.762   3.357   5.738
 1823SOL     MW 7292   4.825   3.338   5.681
 1824SOL     OW 7293   1.688   3.707   2.172
 1824SOL    HW1 7294   1.765   3.686   2.118
 1824SOL    HW2 7295   1.624   3.641   2.148
 1824SOL     MW 7296   1.690   3.697   2.163
 1825SOL     OW 7297   6.031   4.076   5.928
 1825SOL    HW1 7298   5.974   4.147   5.897
 1825SOL    HW2 7299   6.070   4.041   5.849
 1825SOL     MW 7300   6.029   4.081   5.915
 1826SOL     OW 7301   3.998   5.766   2.526
 1826SOL    HW1 7302   4.013   5.733   2.615
 1826SOL    HW2 7303   4.075   5.738   2.477
 1826SOL     MW 7304   4.009   5.758   2.531
 1827SOL     OW 7305   0.286   4.401   4.219
 1827SOL    HW1 7306   0.210   4.441   4.177
 1827SOL    HW2 7307   0.358   4.460   4.201
 1827SOL     MW 7308   0.285   4.413   4.212
 1828SOL     OW 7309   0.114   0.330   0.726
 1828SOL    HW1 7310   0.178   0.257   0.722
 1828SOL    HW2 7311   0.120   0.361   0.815
 1828SOL     MW 7312   0.123   0.325   0.736
 1829SOL     OW 7313   5.406   0.385   4.098
 1829SOL    HW1 7314   5.394   0.290   4.110
 1829SOL    HW2 7315   5.416   0.419   4.186
 1829SOL     MW 7316   5.406   0.377   4.110
 1830SOL     OW 7317   1.098   1.784   1.807
 1830SOL    HW1 7318   1.074   1.783   1.714
 1830SOL    HW2 7319   1.114   1.876   1.825
 1830SOL     MW 7320   1.097   1.795   1.798
 1831SOL     OW 7321   2.254   2.281   5.216
 1831SOL    HW1 7322   2.335   2.323   5.185
 1831SOL    HW2 7323   2.186   2.318   5.161
 1831SOL     MW 7324   2.256   2.290   5.206
 1832SOL     OW 7325   2.373   3.980   3.043
 1832SOL    HW1 7326   2.411   4.067   3.056
 1832SOL    HW2 7327   2.361   3.946   3.131
 1832SOL     MW 7328   2.376   3.987   3.055
 1833SOL     OW 7329   1.623   5.647   0.835
 1833SOL    HW1 7330   1.573   5.645   0.917
 1833SOL    HW2 7331   1.697   5.590   0.851
 1833SOL     MW 7332   1.625   5.640   0.847
 1834SOL     OW 7333   2.495   5.622   0.779
 1834SOL    HW1 7334   2.458   5.632   0.867
 1834SOL    HW2 7335   2.438   5.560   0.735
 1834SOL     MW 7336   2.484   5.616   0.784
 1835SOL     OW 7337   3.290   4.177   5.713
 1835SOL    HW1 7338   3.288   4.240   5.786
 1835SOL    HW2 7339   3.315   4.229   5.638
 1835SOL     MW 7340   3.293   4.191   5.713
 1836SOL     OW 7341   3.745   1.308   2.365
 1836SOL    HW1 7342   3.658   1.332   2.398
 1836SOL    HW2 7343   3.734   1.220   2.331
 1836SOL     MW 7344   3.733   1.301   2.365
 1837SOL     OW 7345   1.422   2.356   5.706
 1837SOL    HW1 7346   1.445   2.331   5.796
 1837SOL    HW2 7347   1.443   2.448   5.701
 1837SOL     MW 7348   1.427   2.364   5.716
 1838SOL     OW 7349   5.467   5.409   3.515
 1838SOL    HW1 7350   5.447   5.380   3.425
 1838SOL    HW2 7351   5.506   5.494   3.503
 1838SOL     MW 7352   5.469   5.415   3.502
 1839SOL     OW 7353   1.310   0.442   5.047
 1839SOL    HW1 7354   1.257   0.506   4.999
 1839SOL    HW2 7355   1.317   0.478   5.134
 1839SOL     MW 7356   1.304   0.454   5.051
 1840SOL     OW 7357   2.646   0.120   2.936
 1840SOL    HW1 7358   2.594   0.069   2.999
 1840SOL    HW2 7359   2.615   0.090   2.851
 1840SOL     MW 7360   2.636   0.110   2.933
 1841SOL     OW 7361   1.217   3.023   0.406
 1841SOL    HW1 7362   1.203   3.118   0.418
 1841SOL    HW2 7363   1.182   2.984   0.486
 1841SOL     MW 7364   1.211   3.030   0.417
 1842SOL     OW 7365   5.715   1.707   1.077
 1842SOL    HW1 7366   5.692   1.708   0.984
 1842SOL    HW2 7367   5.744   1.795   1.096
 1842SOL     MW 7368   5.715   1.718   1.068
 1843SOL     OW 7369   2.325   4.609   2.082
 1843SOL    HW1 7370   2.280   4.581   2.002
 1843SOL    HW2 7371   2.304   4.702   2.089
 1843SOL     MW 7372   2.317   4.617   2.074
 1844SOL     OW 7373   5.242   3.005   0.970
 1844SOL    HW1 7374   5.177   2.960   1.024
 1844SOL    HW2 7375   5.240   2.959   0.887
 1844SOL     MW 7376   5.234   2.994   0.966
 1845SOL     OW 7377   4.916   5.135   0.523
 1845SOL    HW1 7378   4.979   5.062   0.520
 1845SOL    HW2 7379   4.876   5.134   0.437
 1845SOL     MW 7380   4.919   5.126   0.512
 1846SOL     OW 7381   4.037   0.123   3.541
 1846SOL    HW1 7382   4.053   0.117   3.636
 1846SOL    HW2 7383   3.954   0.078   3.529
 1846SOL     MW 7384   4.029   0.117   3.551
 1847SOL     OW 7385   0.328   2.440   6.067
 1847SOL    HW1 7386   0.347   2.355   6.108
 1847SOL    HW2 7387   0.331   2.422   5.974
 1847SOL     MW 7388   0.330   2.427   6.061
 1848SOL     OW 7389   4.116   3.830   5.740
 1848SOL    HW1 7390   4.126   3.738   5.765
 1848SOL    HW2 7391   4.054   3.828   5.668
 1848SOL     MW 7392   4.110   3.819   5.734
 1849SOL     OW 7393   2.563   1.161   0.472
 1849SOL    HW1 7394   2.623   1.092   0.500
 1849SOL    HW2 7395   2.561   1.221   0.546
 1849SOL     MW 7396   2.570   1.160   0.484
 1850SOL     OW 7397   1.319   1.691   3.351
 1850SOL    HW1 7398   1.298   1.730   3.266
 1850SOL    HW2 7399   1.249   1.629   3.367
 1850SOL     MW 7400   1.308   1.688   3.342
 1851SOL     OW 7401   1.389   4.363   3.847
 1851SOL    HW1 7402   1.301   4.401   3.855
 1851SOL    HW2 7403   1.444   4.418   3.902
 1851SOL     MW 7404   1.385   4.374   3.855
 1852SOL     OW 7405   2.156   1.269   5.627
 1852SOL    HW1 7406   2.086   1.328   5.596
 1852SOL    HW2 7407   2.220   1.271   5.557
 1852SOL     MW 7408   2.155   1.276   5.615
 1853SOL     OW 7409   0.317   5.847   1.288
 1853SOL    HW1 7410   0.392   5.833   1.228
 1853SOL    HW2 7411   0.358   5.870   1.370
 1853SOL     MW 7412   0.331   5.848   1.290
 1854SOL     OW 7413   1.856   2.537   0.221
 1854SOL    HW1 7414   1.839   2.553   0.127
 1854SOL    HW2 7415   1.880   2.623   0.254
 1854SOL     MW 7416   1.857   2.549   0.213
 1855SOL     OW 7417   0.607   4.914   1.218
 1855SOL    HW1 7418   0.663   4.912   1.296
 1855SOL    HW2 7419   0.558   4.832   1.223
 1855SOL     MW 7420   0.608   4.904   1.228
 1856SOL     OW 7421   0.608   3.434   3.375
 1856SOL    HW1 7422   0.600   3.340   3.353
 1856SOL    HW2 7423   0.585   3.479   3.295
 1856SOL     MW 7424   0.605   3.428   3.363
 1857SOL     OW 7425   6.074   4.643   4.758
 1857SOL    HW1 7426   6.038   4.693   4.832
 1857SOL    HW2 7427   6.165   4.631   4.780
 1857SOL     MW 7428   6.080   4.648   4.770
 1858SOL     OW 7429   4.047   2.695   3.152
 1858SOL    HW1 7430   4.007   2.613   3.184
 1858SOL    HW2 7431   4.106   2.666   3.084
 1858SOL     MW 7432   4.049   2.682   3.148
 1859SOL     OW 7433   3.235   2.543   5.274
 1859SOL    HW1 7434   3.313   2.555   5.329
 1859SOL    HW2 7435   3.174   2.495   5.329
 1859SOL     MW 7436   3.237   2.539   5.287
 1860SOL     OW 7437   0.156   0.869   5.913
 1860SOL    HW1 7438   0.178   0.958   5.943
 1860SOL    HW2 7439   0.107   0.832   5.985
 1860SOL     MW 7440   0.153   0.876   5.925
 1861SOL     OW 7441   2.874   1.212   1.812
 1861SOL    HW1 7442   2.917   1.268   1.877
 1861SOL    HW2 7443   2.894   1.255   1.729
 1861SOL     MW 7444   2.882   1.224   1.810
 1862SOL     OW 7445   4.079   3.429   3.012
 1862SOL    HW1 7446   4.027   3.398   2.937
 1862SOL    HW2 7447   4.038   3.389   3.088
 1862SOL     MW 7448   4.068   3.420   3.012
 1863SOL     OW 7449   2.869   3.572   2.662
 1863SOL    HW1 7450   2.840   3.577   2.754
 1863SOL    HW2 7451   2.894   3.482   2.650
 1863SOL     MW 7452   2.868   3.562   2.672
 1864SOL     OW 7453   4.683   2.028   3.088
 1864SOL    HW1 7454   4.771   2.001   3.063
 1864SOL    HW2 7455   4.696   2.096   3.153
 1864SOL     MW 7456   4.695   2.033   3.093
 1865SOL     OW 7457   4.098   0.877   4.071
 1865SOL    HW1 7458   4.055   0.945   4.018
 1865SOL    HW2 7459   4.060   0.796   4.039
 1865SOL     MW 7460   4.088   0.875   4.061
 1866SOL     OW 7461   1.601   4.446   4.767
 1866SOL    HW1 7462   1.606   4.488   4.854
 1866SOL    HW2 7463   1.633   4.512   4.707
 1866SOL     MW 7464   1.606   4.459   4.771
 1867SOL     OW 7465   5.683   3.010   1.931
 1867SOL    HW1 7466   5.627   2.950   1.881
 1867SOL    HW2 7467   5.659   2.995   2.021
 1867SOL     MW 7468   5.674   3.001   1.935
 1868SOL     OW 7469   0.971   4.057   1.474
 1868SOL    HW1 7470   0.910   4.014   1.413
 1868SOL    HW2 7471   1.056   4.046   1.433
 1868SOL     MW 7472   0.973   4.051   1.461
 1869SOL     OW 7473   4.747   0.247   1.352
 1869SOL    HW1 7474   4.802   0.274   1.278
 1869SOL    HW2 7475   4.682   0.315   1.358
 1869SOL     MW 7476   4.746   0.259   1.344
 1870SOL     OW 7477   1.428   1.833   3.032
 1870SOL    HW1 7478   1.372   1.825   2.955
 1870SOL    HW2 7479   1.418   1.751   3.078
 1870SOL     MW 7480   1.420   1.823   3.028
 1871SOL     OW 7481   5.319   5.521   1.197
 1871SOL    HW1 7482   5.395   5.510   1.255
 1871SOL    HW2 7483   5.355   5.514   1.110
 1871SOL     MW 7484   5.332   5.519   1.194
 1872SOL     OW 7485   4.148   0.403   3.535
 1872SOL    HW1 7486   4.214   0.362   3.479
 1872SOL    HW2 7487   4.194   0.474   3.578
 1872SOL     MW 7488   4.161   0.406   3.534
 1873SOL     OW 7489   4.065   0.548   0.993
 1873SOL    HW1 7490   3.979   0.538   0.951
 1873SOL    HW2 7491   4.046   0.553   1.086
 1873SOL     MW 7492   4.052   0.547   0.999
 1874SOL     OW 7493   4.410   5.993   0.396
 1874SOL    HW1 7494   4.347   5.932   0.355
 1874SOL    HW2 7495   4.397   5.980   0.489
 1874SOL     MW 7496   4.401   5.984   0.402
 1875SOL     OW 7497   3.254   4.905   0.679
 1875SOL    HW1 7498   3.227   4.887   0.770
 1875SOL    HW2 7499   3.174   4.934   0.636
 1875SOL     MW 7500   3.241   4.906   0.685
 1876SOL     OW 7501   0.806   0.056   3.676
 1876SOL    HW1 7502   0.711   0.072   3.677
 1876SOL    HW2 7503   0.821   0.006   3.597
 1876SOL     MW 7504   0.796   0.052   3.667
 1877SOL     OW 7505   0.341   2.426   0.399
 1877SOL    HW1 7506   0.296   2.366   0.339
 1877SOL    HW2 7507   0.408   2.467   0.345
 1877SOL     MW 7508   0.344   2.424   0.385
 1878SOL     OW 7509   5.990   4.013   1.382
 1878SOL    HW1 7510   6.069   4.033   1.330
 1878SOL    HW2 7511   6.021   4.009   1.471
 1878SOL     MW 7512   6.003   4.015   1.386
 1879SOL     OW 7513   0.422   5.541   1.349
 1879SOL    HW1 7514   0.449   5.458   1.308
 1879SOL    HW2 7515   0.433   5.525   1.442
 1879SOL     MW 7516   0.427   5.529   1.355
 1880SOL     OW 7517   1.957   1.305   1.407
 1880SOL    HW1 7518   1.953   1.350   1.321
 1880SOL    HW2 7519   2.033   1.249   1.399
 1880SOL     MW 7520   1.966   1.304   1.395
 1881SOL     OW 7521   5.765   1.847   5.036
 1881SOL    HW1 7522   5.691   1.893   5.076
 1881SOL    HW2 7523   5.755   1.863   4.943
 1881SOL     MW 7524   5.755   1.855   5.030
 1882SOL     OW 7525   6.023   0.585   0.943
 1882SOL    HW1 7526   5.967   0.659   0.918
 1882SOL    HW2 7527   6.056   0.552   0.860
 1882SOL     MW 7528   6.020   0.590   0.930
 1883SOL     OW 7529   2.651   4.206   6.021
 1883SOL    HW1 7530   2.559   4.219   6.050
 1883SOL    HW2 7531   2.694   4.286   6.048
 1883SOL     MW 7532   2.645   4.217   6.028
 1884SOL     OW 7533   5.930   2.067   3.785
 1884SOL    HW1 7534   5.920   2.154   3.745
 1884SOL    HW2 7535   5.895   2.077   3.873
 1884SOL     MW 7536   5.924   2.079   3.791
 1885SOL     OW 7537   5.185   0.277   2.091
 1885SOL    HW1 7538   5.184   0.201   2.150
 1885SOL    HW2 7539   5.222   0.244   2.010
 1885SOL     MW 7540   5.189   0.264   2.089
 1886SOL     OW 7541   3.562   5.365   4.507
 1886SOL    HW1 7542   3.604   5.355   4.594
 1886SOL    HW2 7543   3.478   5.321   4.517
 1886SOL     MW 7544   3.557   5.358   4.519
 1887SOL     OW 7545   3.373   3.218   5.711
 1887SOL    HW1 7546   3.384   3.123   5.711
 1887SOL    HW2 7547   3.418   3.247   5.790
 1887SOL     MW 7548   3.380   3.210   5.721
 1888SOL     OW 7549   2.905   0.598   0.125
 1888SOL    HW1 7550   2.861   0.575   0.043
 1888SOL    HW2 7551   2.839   0.584   0.192
 1888SOL     MW 7552   2.892   0.593   0.123
 1889SOL     OW 7553   1.190   3.752   3.275
 1889SOL    HW1 7554   1.283   3.771   3.260
 1889SOL    HW2 7555   1.144   3.812   3.218
 1889SOL     MW 7556   1.196   3.762   3.267
 1890SOL     OW 7557   4.650   4.830   0.713
 1890SOL    HW1 7558   4.580   4.867   0.767
 1890SOL    HW2 7559   4.605   4.773   0.652
 1890SOL     MW 7560   4.636   4.828   0.712
 1891SOL     OW 7561   1.964   1.229   3.016
 1891SOL    HW1 7562   2.043   1.280   2.995
 1891SOL    HW2 7563   1.895   1.294   3.024
 1891SOL     MW 7564   1.965   1.243   3.014
 1892SOL     OW 7565   4.722   2.315   5.247
 1892SOL    HW1 7566   4.696   2.296   5.338
 1892SOL    HW2 7567   4.653   2.279   5.194
 1892SOL     MW 7568   4.711   2.309   5.252
 1893SOL     OW 7569   1.570   5.800   0.061
 1893SOL    HW1 7570   1.584   5.803   0.156
 1893SOL    HW2 7571   1.511   5.872   0.043
 1893SOL     MW 7572   1.565   5.809   0.070
 1894SOL     OW 7573   6.045   5.267   3.441
 1894SOL    HW1 7574   6.009   5.184   3.407
 1894SOL    HW2 7575   5.990   5.287   3.516
 1894SOL     MW 7576   6.034   5.259   3.446
 1895SOL     OW 7577   2.513   3.196   4.661
 1895SOL    HW1 7578   2.447   3.169   4.726
 1895SOL    HW2 7579   2.535   3.116   4.615
 1895SOL     MW 7580   2.508   3.183   4.663
 1896SOL     OW 7581   3.188   2.236   0.558
 1896SOL    HW1 7582   3.183   2.147   0.596
 1896SOL    HW2 7583   3.179   2.222   0.465
 1896SOL     MW 7584   3.187   2.223   0.551
 1897SOL     OW 7585   4.137   3.381   2.151
 1897SOL    HW1 7586   4.197   3.454   2.134
 1897SOL    HW2 7587   4.161   3.350   2.238
 1897SOL     MW 7588   4.147   3.386   2.159
 1898SOL     OW 7589   5.825   1.145   5.174
 1898SOL    HW1 7590   5.890   1.214   5.194
 1898SOL    HW2 7591   5.867   1.093   5.107
 1898SOL     MW 7592   5.838   1.147   5.169
 1899SOL     OW 7593   4.893   4.817   2.763
 1899SOL    HW1 7594   4.938   4.866   2.693
 1899SOL    HW2 7595   4.956   4.751   2.789
 1899SOL     MW 7596   4.906   4.816   2.757
 1900SOL     OW 7597   6.038   4.061   1.078
 1900SOL    HW1 7598   5.957   4.073   1.129
 1900SOL    HW2 7599   6.042   4.138   1.022
 1900SOL     MW 7600   6.028   4.072   1.077
 1901SOL     OW 7601   5.646   5.532   0.187
 1901SOL    HW1 7602   5.687   5.449   0.160
 1901SOL    HW2 7603   5.716   5.595   0.183
 1901SOL     MW 7604   5.659   5.529   0.183
 1902SOL     OW 7605   5.312   2.897   2.984
 1902SOL    HW1 7606   5.297   2.939   2.898
 1902SOL    HW2 7607   5.311   2.969   3.046
 1902SOL     MW 7608   5.310   2.911   2.981
 1903SOL     OW 7609   1.039   2.856   4.912
 1903SOL    HW1 7610   0.962   2.899   4.950
 1903SOL    HW2 7611   1.041   2.886   4.822
 1903SOL     MW 7612   1.030   2.865   4.906
 1904SOL     OW 7613   5.533   1.384   2.588
 1904SOL    HW1 7614   5.570   1.452   2.530
 1904SOL    HW2 7615   5.589   1.386   2.665
 1904SOL     MW 7616   5.544   1.393   2.590
 1905SOL     OW 7617   3.517   2.153   1.372
 1905SOL    HW1 7618   3.534   2.193   1.286
 1905SOL    HW2 7619   3.423   2.159   1.384
 1905SOL     MW 7620   3.508   2.158   1.363
 1906SOL     OW 7621   2.524   1.802   3.384
 1906SOL    HW1 7622   2.459   1.873   3.374
 1906SOL    HW2 7623   2.582   1.814   3.309
 1906SOL     MW 7624   2.523   1.812   3.374
 1907SOL     OW 7625   4.844   3.385   0.584
 1907SOL    HW1 7626   4.924   3.436   0.599
 1907SOL    HW2 7627   4.841   3.325   0.658
 1907SOL     MW 7628   4.854   3.384   0.595
 1908SOL     OW 7629   1.953   0.627   5.482
 1908SOL    HW1 7630   1.870   0.598   5.522
 1908SOL    HW2 7631   2.006   0.549   5.479
 1908SOL     MW 7632   1.949   0.614   5.487
 1909SOL     OW 7633   2.526   2.727   0.968
 1909SOL    HW1 7634   2.524   2.722   0.872
 1909SOL    HW2 7635   2.457   2.669   0.996
 1909SOL     MW 7636   2.518   2.720   0.960
 1910SOL     OW 7637   5.205   0.818   0.092
 1910SOL    HW1 7638   5.126   0.764   0.085
 1910SOL    HW2 7639   5.181   0.887   0.153
 1910SOL     MW 7640   5.193   0.820   0.098
 1911SOL     OW 7641   1.070   5.010   2.364
 1911SOL    HW1 7642   0.980   4.995   2.335
 1911SOL    HW2 7643   1.070   4.983   2.455
 1911SOL     MW 7644   1.059   5.005   2.372
 1912SOL     OW 7645   3.837   1.772   5.695
 1912SOL    HW1 7646   3.892   1.706   5.738
 1912SOL    HW2 7647   3.749   1.735   5.698
 1912SOL     MW 7648   3.833   1.759   5.700
 1913SOL     OW 7649   0.607   2.420   0.488
 1913SOL    HW1 7650   0.689   2.457   0.524
 1913SOL    HW2 7651   0.621   2.419   0.394
 1913SOL     MW 7652   0.619   2.424   0.482
 1914SOL     OW 7653   2.522   3.877   1.807
 1914SOL    HW1 7654   2.554   3.813   1.871
 1914SOL    HW2 7655   2.521   3.829   1.725
 1914SOL     MW 7656   2.526   3.863   1.805
 1915SOL     OW 7657   2.047   4.668   2.359
 1915SOL    HW1 7658   2.028   4.646   2.267
 1915SOL    HW2 7659   2.033   4.761   2.364
 1915SOL     MW 7660   2.043   4.676   2.348
 1916SOL     OW 7661   0.842   3.167   6.042
 1916SOL    HW1 7662   0.855   3.156   5.947
 1916SOL    HW2 7663   0.827   3.079   6.074
 1916SOL     MW 7664   0.842   3.156   6.034
 1917SOL     OW 7665   3.489   5.311   1.990
 1917SOL    HW1 7666   3.421   5.258   1.947
 1917SOL    HW2 7667   3.571   5.269   1.963
 1917SOL     MW 7668   3.491   5.299   1.981
 1918SOL     OW 7669   5.146   4.152   5.311
 1918SOL    HW1 7670   5.153   4.214   5.238
 1918SOL    HW2 7671   5.053   4.155   5.334
 1918SOL     MW 7672   5.136   4.160   5.305
 1919SOL     OW 7673   4.895   5.436   2.717
 1919SOL    HW1 7674   4.848   5.442   2.800
 1919SOL    HW2 7675   4.869   5.513   2.669
 1919SOL     MW 7676   4.886   5.446   2.722
 1920SOL     OW 7677   2.194   1.772   2.725
 1920SOL    HW1 7678   2.224   1.740   2.811
 1920SOL    HW2 7679   2.108   1.808   2.743
 1920SOL     MW 7680   2.187   1.772   2.738
 1921SOL     OW 7681   2.088   4.514   1.902
 1921SOL    HW1 7682   2.160   4.503   1.966
 1921SOL    HW2 7683   2.096   4.605   1.875
 1921SOL     MW 7684   2.098   4.524   1.907
 1922SOL     OW 7685   1.347   4.904   2.528
 1922SOL    HW1 7686   1.426   4.903   2.474
 1922SOL    HW2 7687   1.339   4.815   2.559
 1922SOL     MW 7688   1.355   4.893   2.525
 1923SOL     OW 7689   5.631   1.046   2.196
 1923SOL    HW1 7690   5.630   1.125   2.251
 1923SOL    HW2 7691   5.710   1.000   2.221
 1923SOL     MW 7692   5.640   1.050   2.206
 1924SOL     OW 7693   5.042   5.364   5.367
 1924SOL    HW1 7694   4.973   5.424   5.336
 1924SOL    HW2 7695   4.995   5.285   5.391
 1924SOL     MW 7696   5.028   5.362   5.366
 1925SOL     OW 7697   5.938   0.863  -0.007
 1925SOL    HW1 7698   5.865   0.809   0.024
 1925SOL    HW2 7699   5.971   0.904   0.072
 1925SOL     MW 7700   5.933   0.862   0.006
 1926SOL     OW 7701   2.776   1.255   5.306
 1926SOL    HW1 7702   2.694   1.212   5.279
 1926SOL    HW2 7703   2.844   1.206   5.261
 1926SOL     MW 7704   2.774   1.244   5.297
 1927SOL     OW 7705   4.065   2.045   5.390
 1927SOL    HW1 7706   4.045   2.135   5.364
 1927SOL    HW2 7707   4.065   2.047   5.485
 1927SOL     MW 7708   4.063   2.056   5.398
 1928SOL     OW 7709   3.967   4.990   0.577
 1928SOL    HW1 7710   3.927   4.998   0.490
 1928SOL    HW2 7711   4.005   4.903   0.577
 1928SOL     MW 7712   3.967   4.980   0.566
 1929SOL     OW 7713   3.329   1.434   0.665
 1929SOL    HW1 7714   3.299   1.423   0.574
 1929SOL    HW2 7715   3.367   1.521   0.667
 1929SOL     MW 7716   3.330   1.443   0.654
 1930SOL     OW 7717   4.417   3.692   4.525
 1930SOL    HW1 7718   4.338   3.718   4.573
 1930SOL    HW2 7719   4.482   3.675   4.592
 1930SOL     MW 7720   4.415   3.693   4.539
 1931SOL     OW 7721   3.203   0.551   1.620
 1931SOL    HW1 7722   3.158   0.602   1.552
 1931SOL    HW2 7723   3.174   0.589   1.701
 1931SOL     MW 7724   3.194   0.562   1.621
 1932SOL     OW 7725   2.374   3.648   0.228
 1932SOL    HW1 7726   2.348   3.680   0.315
 1932SOL    HW2 7727   2.467   3.629   0.237
 1932SOL     MW 7728   2.382   3.650   0.240
 1933SOL     OW 7729   2.557   3.775   4.632
 1933SOL    HW1 7730   2.586   3.694   4.588
 1933SOL    HW2 7731   2.636   3.808   4.673
 1933SOL     MW 7732   2.570   3.769   4.631
 1934SOL     OW 7733   2.316   0.957   3.265
 1934SOL    HW1 7734   2.401   0.976   3.305
 1934SOL    HW2 7735   2.337   0.918   3.181
 1934SOL     MW 7736   2.329   0.955   3.260
 1935SOL     OW 7737   3.473   4.504   0.906
 1935SOL    HW1 7738   3.485   4.579   0.966
 1935SOL    HW2 7739   3.463   4.544   0.821
 1935SOL     MW 7740   3.474   4.518   0.903
 1936SOL     OW 7741   3.218   4.803   4.638
 1936SOL    HW1 7742   3.142   4.858   4.662
 1936SOL    HW2 7743   3.257   4.849   4.565
 1936SOL     MW 7744   3.213   4.815   4.632
 1937SOL     OW 7745   2.055   2.220   4.534
 1937SOL    HW1 7746   2.076   2.143   4.587
 1937SOL    HW2 7747   2.029   2.185   4.450
 1937SOL     MW 7748   2.054   2.207   4.531
 1938SOL     OW 7749   5.661   0.451   5.184
 1938SOL    HW1 7750   5.664   0.547   5.188
 1938SOL    HW2 7751   5.690   0.424   5.271
 1938SOL     MW 7752   5.665   0.460   5.195
 1939SOL     OW 7753   1.933   0.600   5.884
 1939SOL    HW1 7754   1.858   0.633   5.834
 1939SOL    HW2 7755   2.008   0.639   5.842
 1939SOL     MW 7756   1.932   0.609   5.873
 1940SOL     OW 7757   4.553   3.421   4.639
 1940SOL    HW1 7758   4.596   3.464   4.565
 1940SOL    HW2 7759   4.534   3.334   4.608
 1940SOL     MW 7760   4.556   3.416   4.626
 1941SOL     OW 7761   4.100   0.122   5.873
 1941SOL    HW1 7762   4.036   0.193   5.862
 1941SOL    HW2 7763   4.139   0.113   5.787
 1941SOL     MW 7764   4.097   0.130   5.862
 1942SOL     OW 7765   2.759   2.094   4.507
 1942SOL    HW1 7766   2.689   2.147   4.466
 1942SOL    HW2 7767   2.741   2.101   4.600
 1942SOL     MW 7768   2.748   2.101   4.513
 1943SOL     OW 7769   2.202   4.075   0.844
 1943SOL    HW1 7770   2.272   4.141   0.853
 1943SOL    HW2 7771   2.240   3.997   0.884
 1943SOL     MW 7772   2.215   4.074   0.850
 1944SOL     OW 7773   6.024   4.388   4.858
 1944SOL    HW1 7774   5.980   4.331   4.922
 1944SOL    HW2 7775   6.026   4.337   4.778
 1944SOL     MW 7776   6.019   4.375   4.857
 1945SOL     OW 7777   1.162   2.868   5.444
 1945SOL    HW1 7778   1.170   2.878   5.348
 1945SOL    HW2 7779   1.121   2.949   5.472
 1945SOL     MW 7780   1.158   2.879   5.435
 1946SOL     OW 7781   4.323   2.928   4.643
 1946SOL    HW1 7782   4.283   2.986   4.577
 1946SOL    HW2 7783   4.361   2.858   4.592
 1946SOL     MW 7784   4.322   2.927   4.629
 1947SOL     OW 7785   3.377   1.096   5.357
 1947SOL    HW1 7786   3.387   1.176   5.305
 1947SOL    HW2 7787   3.374   1.126   5.447
 1947SOL     MW 7788   3.378   1.109   5.361
 1948SOL     OW 7789   5.494   2.089   0.812
 1948SOL    HW1 7790   5.570   2.128   0.768
 1948SOL    HW2 7791   5.498   2.121   0.901
 1948SOL     MW 7792   5.504   2.097   0.817
 1949SOL     OW 7793   0.660   4.350   5.347
 1949SOL    HW1 7794   0.574   4.333   5.307
 1949SOL    HW2 7795   0.646   4.338   5.440
 1949SOL     MW 7796   0.648   4.346   5.353
 1950SOL     OW 7797   0.922   0.539   0.219
 1950SOL    HW1 7798   0.876   0.464   0.258
 1950SOL    HW2 7799   0.903   0.534   0.126
 1950SOL     MW 7800   0.914   0.530   0.213
 1951SOL     OW 7801   0.553   2.004   2.416
 1951SOL    HW1 7802   0.592   1.982   2.501
 1951SOL    HW2 7803   0.575   1.929   2.361
 1951SOL     MW 7804   0.561   1.992   2.420
 1952SOL     OW 7805   3.651   4.340   1.489
 1952SOL    HW1 7806   3.716   4.281   1.529
 1952SOL    HW2 7807   3.689   4.364   1.406
 1952SOL     MW 7808   3.664   4.336   1.484
 1953SOL     OW 7809  -0.025   4.801   1.843
 1953SOL    HW1 7810   0.059   4.828   1.883
 1953SOL    HW2 7811  -0.017   4.708   1.830
 1953SOL     MW 7812  -0.014   4.794   1.846
 1954SOL     OW 7813   1.667   2.421   3.624
 1954SOL    HW1 7814   1.607   2.380   3.561
 1954SOL    HW2 7815   1.627   2.406   3.709
 1954SOL     MW 7816   1.655   2.415   3.626
 1955SOL     OW 7817   4.135   0.276   1.472
 1955SOL    HW1 7818   4.229   0.297   1.466
 1955SOL    HW2 7819   4.102   0.335   1.538
 1955SOL     MW 7820   4.143   0.285   1.479
 1956SOL     OW 7821   3.253   4.793   3.115
 1956SOL    HW1 7822   3.176   4.846   3.093
 1956SOL    HW2 7823   3.225   4.704   3.102
 1956SOL     MW 7824   3.240   4.789   3.111
 1957SOL     OW 7825   0.762   2.067   0.079
 1957SOL    HW1 7826   0.752   1.998   0.013
 1957SOL    HW2 7827   0.681   2.116   0.076
 1957SOL     MW 7828   0.751   2.064   0.071
 1958SOL     OW 7829   3.789   2.445   1.271
 1958SOL    HW1 7830   3.715   2.383   1.266
 1958SOL    HW2 7831   3.811   2.447   1.363
 1958SOL     MW 7832   3.783   2.438   1.281
 1959SOL     OW 7833   4.513   2.039   1.151
 1959SOL    HW1 7834   4.543   1.947   1.154
 1959SOL    HW2 7835   4.466   2.046   1.069
 1959SOL     MW 7836   4.511   2.029   1.142
 1960SOL     OW 7837   4.800   1.413   3.476
 1960SOL    HW1 7838   4.799   1.359   3.396
 1960SOL    HW2 7839   4.828   1.498   3.446
 1960SOL     MW 7840   4.803   1.417   3.462
 1961SOL     OW 7841   1.450   3.296   2.103
 1961SOL    HW1 7842   1.528   3.245   2.079
 1961SOL    HW2 7843   1.484   3.373   2.146
 1961SOL     MW 7844   1.463   3.299   2.105
 1962SOL     OW 7845   5.270   5.290   2.907
 1962SOL    HW1 7846   5.178   5.266   2.926
 1962SOL    HW2 7847   5.263   5.352   2.836
 1962SOL     MW 7848   5.258   5.294   2.901
 1963SOL     OW 7849   3.429   4.902   1.205
 1963SOL    HW1 7850   3.427   4.814   1.242
 1963SOL    HW2 7851   3.404   4.890   1.114
 1963SOL     MW 7852   3.426   4.890   1.199
 1964SOL     OW 7853   5.209   1.474   0.478
 1964SOL    HW1 7854   5.122   1.469   0.437
 1964SOL    HW2 7855   5.214   1.394   0.531
 1964SOL     MW 7856   5.199   1.464   0.479
 1965SOL     OW 7857   1.369   3.690   2.009
 1965SOL    HW1 7858   1.383   3.602   2.046
 1965SOL    HW2 7859   1.415   3.748   2.069
 1965SOL     MW 7860   1.376   3.686   2.021
 1966SOL     OW 7861   3.872   3.769   0.223
 1966SOL    HW1 7862   3.784   3.778   0.262
 1966SOL    HW2 7863   3.894   3.678   0.236
 1966SOL     MW 7864   3.864   3.759   0.230
 1967SOL     OW 7865   0.386   0.964   0.640
 1967SOL    HW1 7866   0.370   0.956   0.546
 1967SOL    HW2 7867   0.448   0.895   0.660
 1967SOL     MW 7868   0.392   0.955   0.631
 1968SOL     OW 7869   5.099   2.092   3.762
 1968SOL    HW1 7870   5.183   2.134   3.743
 1968SOL    HW2 7871   5.046   2.109   3.685
 1968SOL     MW 7872   5.103   2.099   3.750
 1969SOL     OW 7873   0.571   1.867   3.231
 1969SOL    HW1 7874   0.567   1.962   3.244
 1969SOL    HW2 7875   0.551   1.831   3.316
 1969SOL     MW 7876   0.568   1.874   3.242
 1970SOL     OW 7877   1.191   1.079   2.872
 1970SOL    HW1 7878   1.103   1.117   2.869
 1970SOL    HW2 7879   1.193   1.032   2.955
 1970SOL     MW 7880   1.181   1.078   2.882
 1971SOL     OW 7881   3.858   2.402   4.903
 1971SOL    HW1 7882   3.919   2.332   4.927
 1971SOL    HW2 7883   3.856   2.458   4.979
 1971SOL     MW 7884   3.866   2.400   4.915
 1972SOL     OW 7885   4.506   6.034   0.079
 1972SOL    HW1 7886   4.581   6.020   0.021
 1972SOL    HW2 7887   4.541   6.016   0.166
 1972SOL     MW 7888   4.519   6.030   0.083
 1973SOL     OW 7889   4.717   2.931   5.361
 1973SOL    HW1 7890   4.652   2.990   5.322
 1973SOL    HW2 7891   4.670   2.890   5.433
 1973SOL     MW 7892   4.704   2.933   5.365
 1974SOL     OW 7893   1.740   5.162   1.677
 1974SOL    HW1 7894   1.799   5.231   1.709
 1974SOL    HW2 7895   1.794   5.084   1.675
 1974SOL     MW 7896   1.754   5.161   1.680
 1975SOL     OW 7897   2.704   3.337   2.568
 1975SOL    HW1 7898   2.789   3.379   2.554
 1975SOL    HW2 7899   2.723   3.263   2.624
 1975SOL     MW 7900   2.716   3.333   2.573
 1976SOL     OW 7901   5.133   4.917   1.034
 1976SOL    HW1 7902   5.124   4.913   0.938
 1976SOL    HW2 7903   5.184   4.996   1.049
 1976SOL     MW 7904   5.138   4.926   1.024
 1977SOL     OW 7905   0.050   4.782   1.176
 1977SOL    HW1 7906   0.025   4.702   1.223
 1977SOL    HW2 7907   0.044   4.758   1.084
 1977SOL     MW 7908   0.046   4.770   1.171
 1978SOL     OW 7909   0.188   4.152   5.536
 1978SOL    HW1 7910   0.205   4.151   5.441
 1978SOL    HW2 7911   0.274   4.144   5.575
 1978SOL     MW 7912   0.200   4.151   5.529
 1979SOL     OW 7913   0.998   1.510   1.582
 1979SOL    HW1 7914   0.940   1.445   1.542
 1979SOL    HW2 7915   0.994   1.491   1.675
 1979SOL     MW 7916   0.991   1.500   1.588
 1980SOL     OW 7917   4.285   2.749   1.797
 1980SOL    HW1 7918   4.249   2.821   1.745
 1980SOL    HW2 7919   4.293   2.785   1.884
 1980SOL     MW 7920   4.282   2.762   1.801
 1981SOL     OW 7921   0.622   2.857   4.873
 1981SOL    HW1 7922   0.619   2.952   4.887
 1981SOL    HW2 7923   0.685   2.825   4.936
 1981SOL     MW 7924   0.629   2.865   4.882
 1982SOL     OW 7925   2.071   2.077   5.652
 1982SOL    HW1 7926   2.091   1.991   5.692
 1982SOL    HW2 7927   2.073   2.060   5.559
 1982SOL     MW 7928   2.074   2.064   5.646
 1983SOL     OW 7929   6.118   4.198   3.218
 1983SOL    HW1 7930   6.054   4.260   3.181
 1983SOL    HW2 7931   6.069   4.152   3.285
 1983SOL     MW 7932   6.104   4.200   3.222
 1984SOL     OW 7933   2.565   0.156   2.399
 1984SOL    HW1 7934   2.569   0.064   2.427
 1984SOL    HW2 7935   2.651   0.174   2.365
 1984SOL     MW 7936   2.575   0.147   2.398
 1985SOL     OW 7937   3.626   0.889   3.344
 1985SOL    HW1 7938   3.659   0.824   3.407
 1985SOL    HW2 7939   3.573   0.948   3.396
 1985SOL     MW 7940   3.624   0.888   3.358
 1986SOL     OW 7941   5.197   2.424   4.141
 1986SOL    HW1 7942   5.110   2.410   4.178
 1986SOL    HW2 7943   5.234   2.493   4.194
 1986SOL     MW 7944   5.191   2.430   4.151
 1987SOL     OW 7945   5.194   4.125   2.182
 1987SOL    HW1 7946   5.130   4.121   2.110
 1987SOL    HW2 7947   5.159   4.066   2.248
 1987SOL     MW 7948   5.182   4.117   2.181
 1988SOL     OW 7949   0.671   3.773   0.169
 1988SOL    HW1 7950   0.648   3.680   0.170
 1988SOL    HW2 7951   0.764   3.774   0.185
 1988SOL     MW 7952   0.679   3.762   0.171
 1989SOL     OW 7953   1.199   1.782   2.616
 1989SOL    HW1 7954   1.168   1.701   2.658
 1989SOL    HW2 7955   1.186   1.766   2.524
 1989SOL     MW 7956   1.194   1.770   2.611
 1990SOL     OW 7957   0.332   4.545   3.972
 1990SOL    HW1 7958   0.401   4.481   3.993
 1990SOL    HW2 7959   0.258   4.519   4.026
 1990SOL     MW 7960   0.332   4.534   3.981
 1991SOL     OW 7961   2.308   0.916   5.203
 1991SOL    HW1 7962   2.232   0.969   5.177
 1991SOL    HW2 7963   2.363   0.977   5.250
 1991SOL     MW 7964   2.305   0.930   5.205
 1992SOL     OW 7965   5.185   4.954   2.410
 1992SOL    HW1 7966   5.173   4.982   2.319
 1992SOL    HW2 7967   5.279   4.962   2.424
 1992SOL     MW 7968   5.195   4.959   2.401
 1993SOL     OW 7969   2.483   3.966   4.362
 1993SOL    HW1 7970   2.387   3.958   4.353
 1993SOL    HW2 7971   2.516   3.949   4.275
 1993SOL     MW 7972   2.475   3.963   4.350
 1994SOL     OW 7973   2.609   4.791   1.335
 1994SOL    HW1 7974   2.580   4.706   1.371
 1994SOL    HW2 7975   2.587   4.786   1.243
 1994SOL     MW 7976   2.602   4.780   1.329
 1995SOL     OW 7977   0.068   3.651   3.334
 1995SOL    HW1 7978   0.017   3.719   3.289
 1995SOL    HW2 7979   0.048   3.663   3.426
 1995SOL     MW 7980   0.059   3.660   3.339
 1996SOL     OW 7981   4.392   2.716   1.594
 1996SOL    HW1 7982   4.404   2.806   1.627
 1996SOL    HW2 7983   4.364   2.666   1.670
 1996SOL     MW 7984   4.390   2.721   1.607
 1997SOL     OW 7985   5.869   4.125   2.181
 1997SOL    HW1 7986   5.889   4.037   2.150
 1997SOL    HW2 7987   5.840   4.112   2.271
 1997SOL     MW 7988   5.868   4.113   2.188
 1998SOL     OW 7989   0.649   4.435   1.048
 1998SOL    HW1 7990   0.701   4.397   0.977
 1998SOL    HW2 7991   0.602   4.362   1.085
 1998SOL     MW 7992   0.649   4.422   1.044
 1999SOL     OW 7993   3.888   0.719   3.986
 1999SOL    HW1 7994   3.943   0.720   4.064
 1999SOL    HW2 7995   3.934   0.661   3.926
 1999SOL     MW 7996   3.900   0.712   3.988
 2000SOL     OW 7997   5.433   4.441   1.292
 2000SOL    HW1 7998   5.345   4.466   1.321
 2000SOL    HW2 7999   5.418   4.395   1.210
 2000SOL     MW 8000   5.421   4.438   1.285
 2001SOL     OW 8001   1.030   0.552   1.156
 2001SOL    HW1 8002   0.979   0.518   1.082
 2001SOL    HW2 8003   1.081   0.478   1.185
 2001SOL     MW 8004   1.030   0.539   1.150
 2002SOL     OW 8005   4.823   2.299   0.411
 2002SOL    HW1 8006   4.803   2.247   0.333
 2002SOL    HW2 8007   4.830   2.235   0.480
 2002SOL     MW 8008   4.821   2.285   0.410
 2003SOL     OW 8009   4.148   0.787   5.640
 2003SOL    HW1 8010   4.089   0.718   5.606
 2003SOL    HW2 8011   4.193   0.819   5.564
 2003SOL     MW 8012   4.146   0.782   5.627
 2004SOL     OW 8013   3.301   1.586   4.703
 2004SOL    HW1 8014   3.290   1.519   4.771
 2004SOL    HW2 8015   3.395   1.587   4.686
 2004SOL     MW 8016   3.311   1.578   4.709
 2005SOL     OW 8017   0.818   0.806   2.930
 2005SOL    HW1 8018   0.742   0.863   2.913
 2005SOL    HW2 8019   0.791   0.753   3.004
 2005SOL     MW 8020   0.805   0.806   2.936
 2006SOL     OW 8021   2.289   2.244   2.307
 2006SOL    HW1 8022   2.361   2.255   2.369
 2006SOL    HW2 8023   2.280   2.329   2.266
 2006SOL     MW 8024   2.297   2.255   2.310
 2007SOL     OW 8025   5.131   1.845   1.109
 2007SOL    HW1 8026   5.164   1.933   1.132
 2007SOL    HW2 8027   5.125   1.846   1.015
 2007SOL     MW 8028   5.134   1.856   1.101
 2008SOL     OW 8029   4.687   1.251   2.814
 2008SOL    HW1 8030   4.750   1.316   2.847
 2008SOL    HW2 8031   4.684   1.267   2.721
 2008SOL     MW 8032   4.695   1.261   2.807
 2009SOL     OW 8033   2.489   2.077   3.306
 2009SOL    HW1 8034   2.474   2.080   3.401
 2009SOL    HW2 8035   2.491   1.985   3.285
 2009SOL     MW 8036   2.487   2.066   3.315
 2010SOL     OW 8037   3.649   3.670   2.916
 2010SOL    HW1 8038   3.566   3.718   2.905
 2010SOL    HW2 8039   3.652   3.649   3.008
 2010SOL     MW 8040   3.639   3.673   2.925
 2011SOL     OW 8041   2.776   3.674   5.560
 2011SOL    HW1 8042   2.698   3.619   5.572
 2011SOL    HW2 8043   2.782   3.723   5.641
 2011SOL     MW 8044   2.767   3.673   5.571
 2012SOL     OW 8045   0.785   5.805   3.348
 2012SOL    HW1 8046   0.750   5.718   3.373
 2012SOL    HW2 8047   0.796   5.799   3.254
 2012SOL     MW 8048   0.782   5.793   3.340
 2013SOL     OW 8049   0.352   3.654   1.285
 2013SOL    HW1 8050   0.303   3.592   1.230
 2013SOL    HW2 8051   0.399   3.599   1.346
 2013SOL     MW 8052   0.352   3.640   1.285
 2014SOL     OW 8053   2.485   4.640   0.675
 2014SOL    HW1 8054   2.414   4.591   0.632
 2014SOL    HW2 8055   2.465   4.634   0.768
 2014SOL     MW 8056   2.474   4.633   0.681
 2015SOL     OW 8057   2.696   3.415   4.989
 2015SOL    HW1 8058   2.622   3.374   5.035
 2015SOL    HW2 8059   2.667   3.418   4.898
 2015SOL     MW 8060   2.683   3.410   4.983
 2016SOL     OW 8061   4.886   0.362   4.134
 2016SOL    HW1 8062   4.870   0.405   4.218
 2016SOL    HW2 8063   4.799   0.346   4.099
 2016SOL     MW 8064   4.873   0.365   4.140
 2017SOL     OW 8065   5.346   2.244   1.810
 2017SOL    HW1 8066   5.356   2.243   1.906
 2017SOL    HW2 8067   5.434   2.231   1.777
 2017SOL     MW 8068   5.358   2.242   1.818
 2018SOL     OW 8069   4.652   2.478   3.812
 2018SOL    HW1 8070   4.653   2.462   3.717
 2018SOL    HW2 8071   4.643   2.572   3.820
 2018SOL     MW 8072   4.651   2.487   3.801
 2019SOL     OW 8073   2.121   0.471   3.032
 2019SOL    HW1 8074   2.189   0.537   3.019
 2019SOL    HW2 8075   2.063   0.482   2.958
 2019SOL     MW 8076   2.122   0.480   3.022
 2020SOL     OW 8077   3.965   4.529   2.958
 2020SOL    HW1 8078   4.038   4.487   2.912
 2020SOL    HW2 8079   3.910   4.457   2.986
 2020SOL     MW 8080   3.968   4.516   2.956
 2021SOL     OW 8081   0.127   0.683   2.515
 2021SOL    HW1 8082   0.072   0.749   2.560
 2021SOL    HW2 8083   0.102   0.601   2.555
 2021SOL     MW 8084   0.117   0.681   2.525
 2022SOL     OW 8085   4.718   1.121   4.277
 2022SOL    HW1 8086   4.653   1.062   4.236
 2022SOL    HW2 8087   4.677   1.206   4.274
 2022SOL     MW 8088   4.705   1.124   4.271
 2023SOL     OW 8089   2.816   4.841   1.356
 2023SOL    HW1 8090   2.742   4.899   1.380
 2023SOL    HW2 8091   2.829   4.788   1.434
 2023SOL     MW 8092   2.808   4.842   1.368
 2024SOL     OW 8093   4.570   6.006   4.040
 2024SOL    HW1 8094   4.653   5.993   4.086
 2024SOL    HW2 8095   4.506   5.959   4.092
 2024SOL     MW 8096   4.572   5.999   4.052
 2025SOL     OW 8097   1.374   3.494   0.370
 2025SOL    HW1 8098   1.458   3.523   0.407
 2025SOL    HW2 8099   1.380   3.518   0.278
 2025SOL     MW 8100   1.385   3.500   0.364
 2026SOL     OW 8101   2.284   5.853   5.406
 2026SOL    HW1 8102   2.350   5.913   5.441
 2026SOL    HW2 8103   2.254   5.894   5.326
 2026SOL     MW 8104   2.289   5.865   5.401
 2027SOL     OW 8105   2.750   3.156   0.406
 2027SOL    HW1 8106   2.792   3.209   0.475
 2027SOL    HW2 8107   2.736   3.217   0.335
 2027SOL     MW 8108   2.754   3.170   0.406
 2028SOL     OW 8109   5.300   3.188   4.235
 2028SOL    HW1 8110   5.379   3.142   4.205
 2028SOL    HW2 8111   5.298   3.267   4.182
 2028SOL     MW 8112   5.309   3.192   4.225
 2029SOL     OW 8113   1.115   4.282   2.138
 2029SOL    HW1 8114   1.113   4.263   2.043
 2029SOL    HW2 8115   1.207   4.291   2.159
 2029SOL     MW 8116   1.126   4.281   2.129
 2030SOL     OW 8117   5.551   2.728   0.927
 2030SOL    HW1 8118   5.466   2.767   0.905
 2030SOL    HW2 8119   5.613   2.799   0.911
 2030SOL     MW 8120   5.548   2.741   0.922
 2031SOL     OW 8121   0.774   4.994   5.273
 2031SOL    HW1 8122   0.861   4.989   5.314
 2031SOL    HW2 8123   0.744   4.904   5.271
 2031SOL     MW 8124   0.781   4.983   5.278
 2032SOL     OW 8125   5.388   0.186   3.779
 2032SOL    HW1 8126   5.475   0.208   3.813
 2032SOL    HW2 8127   5.404   0.166   3.687
 2032SOL     MW 8128   5.400   0.186   3.772
 2033SOL     OW 8129   2.469   5.351   2.475
 2033SOL    HW1 8130   2.527   5.387   2.407
 2033SOL    HW2 8131   2.477   5.412   2.548
 2033SOL     MW 8132   2.477   5.363   2.476
 2034SOL     OW 8133   5.291   0.045   5.291
 2034SOL    HW1 8134   5.257  -0.022   5.351
 2034SOL    HW2 8135   5.346  -0.004   5.231
 2034SOL     MW 8136   5.293   0.031   5.291
 2035SOL     OW 8137   1.818   5.042   0.046
 2035SOL    HW1 8138   1.815   4.946   0.051
 2035SOL    HW2 8139   1.901   5.065   0.084
 2035SOL     MW 8140   1.827   5.033   0.051
 2036SOL     OW 8141   5.976   5.556   0.228
 2036SOL    HW1 8142   5.903   5.517   0.179
 2036SOL    HW2 8143   5.952   5.544   0.319
 2036SOL     MW 8144   5.964   5.550   0.232
 2037SOL     OW 8145   2.933   2.612   4.071
 2037SOL    HW1 8146   2.932   2.530   4.020
 2037SOL    HW2 8147   2.910   2.679   4.007
 2037SOL     MW 8148   2.930   2.610   4.057
 2038SOL     OW 8149   1.228   4.634   3.662
 2038SOL    HW1 8150   1.291   4.667   3.727
 2038SOL    HW2 8151   1.280   4.619   3.585
 2038SOL     MW 8152   1.242   4.636   3.661
 2039SOL     OW 8153   0.627   0.998   2.700
 2039SOL    HW1 8154   0.689   0.941   2.747
 2039SOL    HW2 8155   0.589   1.052   2.768
 2039SOL     MW 8156   0.630   0.998   2.714
 2040SOL     OW 8157   3.673   4.701   4.702
 2040SOL    HW1 8158   3.629   4.718   4.786
 2040SOL    HW2 8159   3.677   4.607   4.696
 2040SOL     MW 8160   3.668   4.692   4.711
 2041SOL     OW 8161   1.050   2.673   0.113
 2041SOL    HW1 8162   1.003   2.589   0.106
 2041SOL    HW2 8163   1.137   2.653   0.078
 2041SOL     MW 8164   1.055   2.660   0.108
 2042SOL     OW 8165   3.331   3.961   2.904
 2042SOL    HW1 8166   3.347   4.014   2.825
 2042SOL    HW2 8167   3.340   4.023   2.975
 2042SOL     MW 8168   3.334   3.975   2.903
 2043SOL     OW 8169   2.081   1.651   3.013
 2043SOL    HW1 8170   2.085   1.557   3.034
 2043SOL    HW2 8171   2.109   1.655   2.922
 2043SOL     MW 8172   2.085   1.640   3.004
 2044SOL     OW 8173   0.303   0.756   3.280
 2044SOL    HW1 8174   0.332   0.734   3.191
 2044SOL    HW2 8175   0.258   0.679   3.310
 2044SOL     MW 8176   0.301   0.744   3.273
 2045SOL     OW 8177   2.220   2.490   3.930
 2045SOL    HW1 8178   2.244   2.466   4.020
 2045SOL    HW2 8179   2.168   2.569   3.940
 2045SOL     MW 8180   2.217   2.497   3.943
 2046SOL     OW 8181   3.448   5.638   0.181
 2046SOL    HW1 8182   3.387   5.712   0.183
 2046SOL    HW2 8183   3.505   5.657   0.107
 2046SOL     MW 8184   3.447   5.649   0.172
 2047SOL     OW 8185   2.989   0.511   5.691
 2047SOL    HW1 8186   2.993   0.429   5.641
 2047SOL    HW2 8187   3.002   0.484   5.781
 2047SOL     MW 8188   2.991   0.498   5.695
 2048SOL     OW 8189   3.080   1.171   0.875
 2048SOL    HW1 8190   3.040   1.212   0.952
 2048SOL    HW2 8191   3.099   1.244   0.817
 2048SOL     MW 8192   3.077   1.184   0.878
 2049SOL     OW 8193   6.085   2.794   3.204
 2049SOL    HW1 8194   6.064   2.728   3.270
 2049SOL    HW2 8195   6.085   2.746   3.122
 2049SOL     MW 8196   6.082   2.780   3.202
 2050SOL     OW 8197   6.060   1.679   0.390
 2050SOL    HW1 8198   6.076   1.761   0.342
 2050SOL    HW2 8199   6.146   1.655   0.424
 2050SOL     MW 8200   6.072   1.686   0.388
 2051SOL     OW 8201   1.166   0.763   2.087
 2051SOL    HW1 8202   1.095   0.734   2.144
 2051SOL    HW2 8203   1.122   0.799   2.011
 2051SOL     MW 8204   1.152   0.764   2.085
 2052SOL     OW 8205   4.309   3.023   5.712
 2052SOL    HW1 8206   4.334   2.930   5.711
 2052SOL    HW2 8207   4.241   3.030   5.647
 2052SOL     MW 8208   4.304   3.013   5.705
 2053SOL     OW 8209   5.477   0.769   4.655
 2053SOL    HW1 8210   5.408   0.758   4.589
 2053SOL    HW2 8211   5.523   0.686   4.654
 2053SOL     MW 8212   5.474   0.758   4.647
 2054SOL     OW 8213   4.625   5.591   5.641
 2054SOL    HW1 8214   4.689   5.528   5.607
 2054SOL    HW2 8215   4.544   5.542   5.647
 2054SOL     MW 8216   4.623   5.578   5.638
 2055SOL     OW 8217   5.701   1.370   3.298
 2055SOL    HW1 8218   5.767   1.439   3.287
 2055SOL    HW2 8219   5.687   1.365   3.392
 2055SOL     MW 8220   5.708   1.378   3.308
 2056SOL     OW 8221   2.343   1.435   4.201
 2056SOL    HW1 8222   2.273   1.501   4.188
 2056SOL    HW2 8223   2.334   1.410   4.292
 2056SOL     MW 8224   2.333   1.440   4.210
 2057SOL     OW 8225   4.540   3.818   0.363
 2057SOL    HW1 8226   4.512   3.790   0.275
 2057SOL    HW2 8227   4.622   3.773   0.377
 2057SOL     MW 8228   4.546   3.809   0.353
 2058SOL     OW 8229   1.457   0.479   0.702
 2058SOL    HW1 8230   1.497   0.567   0.698
 2058SOL    HW2 8231   1.373   0.490   0.659
 2058SOL     MW 8232   1.452   0.491   0.696
 2059SOL     OW 8233   2.813   3.675   3.559
 2059SOL    HW1 8234   2.802   3.739   3.488
 2059SOL    HW2 8235   2.888   3.623   3.532
 2059SOL     MW 8236   2.821   3.677   3.547
 2060SOL     OW 8237   5.060   3.269   5.826
 2060SOL    HW1 8238   5.081   3.253   5.734
 2060SOL    HW2 8239   5.101   3.353   5.845
 2060SOL     MW 8240   5.068   3.277   5.817
 2061SOL     OW 8241   4.297   1.948   4.139
 2061SOL    HW1 8242   4.332   1.949   4.228
 2061SOL    HW2 8243   4.336   2.024   4.097
 2061SOL     MW 8244   4.306   1.957   4.145
 2062SOL     OW 8245   3.611   1.835   4.304
 2062SOL    HW1 8246   3.606   1.750   4.349
 2062SOL    HW2 8247   3.545   1.828   4.236
 2062SOL     MW 8248   3.602   1.823   4.301
 2063SOL     OW 8249   0.710   5.174   5.008
 2063SOL    HW1 8250   0.727   5.079   5.004
 2063SOL    HW2 8251   0.640   5.188   4.945
 2063SOL     MW 8252   0.704   5.164   5.000
 2064SOL     OW 8253   5.098   3.176   1.908
 2064SOL    HW1 8254   5.002   3.172   1.900
 2064SOL    HW2 8255   5.113   3.252   1.963
 2064SOL     MW 8256   5.088   3.184   1.914
 2065SOL     OW 8257   5.382   1.797   0.981
 2065SOL    HW1 8258   5.426   1.874   1.019
 2065SOL    HW2 8259   5.339   1.831   0.904
 2065SOL     MW 8260   5.382   1.811   0.977
 2066SOL     OW 8261   0.064   3.558   1.591
 2066SOL    HW1 8262   0.032   3.467   1.603
 2066SOL    HW2 8263   0.025   3.606   1.663
 2066SOL     MW 8264   0.056   3.552   1.601
 2067SOL     OW 8265   5.102   5.078   0.942
 2067SOL    HW1 8266   5.060   5.090   1.028
 2067SOL    HW2 8267   5.039   5.027   0.893
 2067SOL     MW 8268   5.089   5.073   0.947
 2068SOL     OW 8269   1.500   1.958   4.883
 2068SOL    HW1 8270   1.509   1.991   4.973
 2068SOL    HW2 8271   1.515   2.033   4.828
 2068SOL     MW 8272   1.503   1.971   4.887
 2069SOL     OW 8273   2.941   4.401   3.911
 2069SOL    HW1 8274   3.025   4.379   3.870
 2069SOL    HW2 8275   2.945   4.495   3.923
 2069SOL     MW 8276   2.952   4.409   3.907
 2070SOL     OW 8277   1.268   1.662   1.243
 2070SOL    HW1 8278   1.351   1.648   1.198
 2070SOL    HW2 8279   1.292   1.685   1.332
 2070SOL     MW 8280   1.281   1.663   1.248
 2071SOL     OW 8281   4.677   2.174   0.720
 2071SOL    HW1 8282   4.662   2.260   0.680
 2071SOL    HW2 8283   4.676   2.191   0.813
 2071SOL     MW 8284   4.675   2.186   0.726
 2072SOL     OW 8285   1.206   4.492   0.784
 2072SOL    HW1 8286   1.186   4.567   0.841
 2072SOL    HW2 8287   1.290   4.460   0.815
 2072SOL     MW 8288   1.214   4.497   0.795
 2073SOL     OW 8289   2.219   5.426   2.484
 2073SOL    HW1 8290   2.174   5.343   2.466
 2073SOL    HW2 8291   2.222   5.430   2.579
 2073SOL     MW 8292   2.214   5.416   2.493
 2074SOL     OW 8293   3.098   3.788   3.349
 2074SOL    HW1 8294   3.158   3.725   3.307
 2074SOL    HW2 8295   3.114   3.777   3.442
 2074SOL     MW 8296   3.107   3.779   3.355
 2075SOL     OW 8297   2.324   3.464   4.115
 2075SOL    HW1 8298   2.412   3.492   4.090
 2075SOL    HW2 8299   2.315   3.493   4.205
 2075SOL     MW 8300   2.333   3.471   4.123
 2076SOL     OW 8301   2.852   2.262   1.159
 2076SOL    HW1 8302   2.775   2.309   1.127
 2076SOL    HW2 8303   2.875   2.203   1.089
 2076SOL     MW 8304   2.846   2.261   1.147
 2077SOL     OW 8305   2.176   0.317   3.266
 2077SOL    HW1 8306   2.106   0.273   3.217
 2077SOL    HW2 8307   2.147   0.313   3.357
 2077SOL     MW 8308   2.164   0.311   3.271
 2078SOL     OW 8309   2.414   3.745   1.844
 2078SOL    HW1 8310   2.366   3.768   1.925
 2078SOL    HW2 8311   2.345   3.726   1.782
 2078SOL     MW 8312   2.400   3.746   1.847
 2079SOL     OW 8313   2.134   3.614   1.332
 2079SOL    HW1 8314   2.082   3.555   1.276
 2079SOL    HW2 8315   2.113   3.587   1.420
 2079SOL     MW 8316   2.125   3.604   1.335
 2080SOL     OW 8317   1.363   2.175   1.519
 2080SOL    HW1 8318   1.325   2.194   1.605
 2080SOL    HW2 8319   1.332   2.245   1.463
 2080SOL     MW 8320   1.355   2.186   1.523
 2081SOL     OW 8321   5.874   3.280   3.278
 2081SOL    HW1 8322   5.892   3.280   3.372
 2081SOL    HW2 8323   5.940   3.337   3.241
 2081SOL     MW 8324   5.884   3.287   3.285
 2082SOL     OW 8325   2.464   4.640   5.648
 2082SOL    HW1 8326   2.401   4.648   5.721
 2082SOL    HW2 8327   2.541   4.685   5.680
 2082SOL     MW 8328   2.465   4.646   5.661
 2083SOL     OW 8329   5.013   1.492   1.698
 2083SOL    HW1 8330   4.974   1.509   1.785
 2083SOL    HW2 8331   4.971   1.555   1.641
 2083SOL     MW 8332   5.004   1.502   1.702
 2084SOL     OW 8333   2.419   3.956   0.190
 2084SOL    HW1 8334   2.489   4.016   0.160
 2084SOL    HW2 8335   2.428   3.954   0.284
 2084SOL     MW 8336   2.429   3.963   0.197
 2085SOL     OW 8337   0.874   4.120   0.266
 2085SOL    HW1 8338   0.965   4.152   0.269
 2085SOL    HW2 8339   0.856   4.108   0.174
 2085SOL     MW 8340   0.883   4.122   0.255
 2086SOL     OW 8341   4.726   5.798   0.569
 2086SOL    HW1 8342   4.802   5.742   0.548
 2086SOL    HW2 8343   4.696   5.829   0.484
 2086SOL     MW 8344   4.732   5.795   0.556
 2087SOL     OW 8345   5.088   2.932   2.502
 2087SOL    HW1 8346   5.175   2.935   2.544
 2087SOL    HW2 8347   5.106   2.928   2.410
 2087SOL     MW 8348   5.100   2.932   2.497
 2088SOL     OW 8349   4.684   4.277   1.534
 2088SOL    HW1 8350   4.628   4.344   1.575
 2088SOL    HW2 8351   4.677   4.294   1.441
 2088SOL     MW 8352   4.676   4.287   1.528
 2089SOL     OW 8353   3.330   5.446   2.735
 2089SOL    HW1 8354   3.370   5.374   2.686
 2089SOL    HW2 8355   3.336   5.420   2.826
 2089SOL     MW 8356   3.335   5.434   2.739
 2090SOL     OW 8357   0.367   1.149   1.555
 2090SOL    HW1 8358   0.285   1.179   1.514
 2090SOL    HW2 8359   0.349   1.153   1.648
 2090SOL     MW 8360   0.355   1.153   1.561
 2091SOL     OW 8361   1.611   5.017   1.458
 2091SOL    HW1 8362   1.618   5.014   1.362
 2091SOL    HW2 8363   1.693   4.982   1.488
 2091SOL     MW 8364   1.622   5.013   1.450
 2092SOL     OW 8365   2.589   0.317   4.964
 2092SOL    HW1 8366   2.552   0.405   4.947
 2092SOL    HW2 8367   2.621   0.289   4.879
 2092SOL     MW 8368   2.589   0.325   4.952
 2093SOL     OW 8369   1.089   3.508   4.756
 2093SOL    HW1 8370   1.165   3.523   4.814
 2093SOL    HW2 8371   1.094   3.579   4.693
 2093SOL     MW 8372   1.099   3.519   4.756
 2094SOL     OW 8373   4.430   0.910   0.800
 2094SOL    HW1 8374   4.460   0.854   0.873
 2094SOL    HW2 8375   4.453   0.861   0.722
 2094SOL     MW 8376   4.436   0.898   0.800
 2095SOL     OW 8377   4.840   0.430   3.818
 2095SOL    HW1 8378   4.756   0.384   3.802
 2095SOL    HW2 8379   4.872   0.452   3.732
 2095SOL     MW 8380   4.833   0.427   3.806
 2096SOL     OW 8381   2.758   2.653   3.909
 2096SOL    HW1 8382   2.704   2.608   3.842
 2096SOL    HW2 8383   2.800   2.723   3.861
 2096SOL     MW 8384   2.756   2.656   3.895
 2097SOL     OW 8385   5.061   2.203   4.367
 2097SOL    HW1 8386   5.099   2.261   4.301
 2097SOL    HW2 8387   5.031   2.261   4.436
 2097SOL     MW 8388   5.062   2.217   4.367
 2098SOL     OW 8389   1.607   0.700   3.357
 2098SOL    HW1 8390   1.595   0.637   3.285
 2098SOL    HW2 8391   1.631   0.647   3.431
 2098SOL     MW 8392   1.609   0.686   3.357
 2099SOL     OW 8393   2.680   0.096   5.315
 2099SOL    HW1 8394   2.643   0.158   5.251
 2099SOL    HW2 8395   2.644   0.125   5.398
 2099SOL     MW 8396   2.671   0.107   5.317
 2100SOL     OW 8397   0.968   2.901   2.894
 2100SOL    HW1 8398   0.980   2.988   2.854
 2100SOL    HW2 8399   0.929   2.921   2.979
 2100SOL     MW 8400   0.965   2.914   2.899
 2101SOL     OW 8401   1.722   3.158   3.322
 2101SOL    HW1 8402   1.805   3.180   3.278
 2101SOL    HW2 8403   1.655   3.195   3.266
 2101SOL     MW 8404   1.724   3.165   3.310
 2102SOL     OW 8405   4.423   0.146   4.270
 2102SOL    HW1 8406   4.336   0.112   4.251
 2102SOL    HW2 8407   4.426   0.153   4.364
 2102SOL     MW 8408   4.413   0.143   4.279
 2103SOL     OW 8409   4.928   2.820   5.178
 2103SOL    HW1 8410   5.013   2.790   5.143
 2103SOL    HW2 8411   4.935   2.915   5.176
 2103SOL     MW 8412   4.939   2.828   5.173
 2104SOL     OW 8413   0.546   4.333   1.922
 2104SOL    HW1 8414   0.557   4.422   1.957
 2104SOL    HW2 8415   0.600   4.332   1.844
 2104SOL     MW 8416   0.553   4.344   1.917
 2105SOL     OW 8417   1.464   4.222   0.894
 2105SOL    HW1 8418   1.549   4.240   0.852
 2105SOL    HW2 8419   1.478   4.245   0.985
 2105SOL     MW 8420   1.476   4.227   0.899
 2106SOL     OW 8421   0.379   3.042   5.587
 2106SOL    HW1 8422   0.308   3.105   5.593
 2106SOL    HW2 8423   0.391   3.010   5.675
 2106SOL     MW 8424   0.372   3.046   5.598
 2107SOL     OW 8425   0.890   1.713   1.783
 2107SOL    HW1 8426   0.924   1.630   1.749
 2107SOL    HW2 8427   0.867   1.693   1.873
 2107SOL     MW 8428   0.892   1.700   1.790
 2108SOL     OW 8429   0.752   0.341   2.575
 2108SOL    HW1 8430   0.668   0.360   2.531
 2108SOL    HW2 8431   0.727   0.324   2.666
 2108SOL     MW 8432   0.739   0.341   2.581
 2109SOL     OW 8433   4.693   1.745   2.534
 2109SOL    HW1 8434   4.637   1.746   2.612
 2109SOL    HW2 8435   4.641   1.788   2.467
 2109SOL     MW 8436   4.680   1.750   2.535
 2110SOL     OW 8437   3.519   5.558   2.298
 2110SOL    HW1 8438   3.470   5.504   2.235
 2110SOL    HW2 8439   3.572   5.614   2.243
 2110SOL     MW 8440   3.519   5.558   2.283
 2111SOL     OW 8441   4.560   1.009   5.087
 2111SOL    HW1 8442   4.566   1.064   5.165
 2111SOL    HW2 8443   4.519   0.929   5.118
 2111SOL     MW 8444   4.556   1.006   5.100
 2112SOL     OW 8445   3.441   5.929   5.472
 2112SOL    HW1 8446   3.480   5.849   5.436
 2112SOL    HW2 8447   3.444   5.916   5.566
 2112SOL     MW 8448   3.446   5.918   5.479
 2113SOL     OW 8449   5.647   5.662   0.679
 2113SOL    HW1 8450   5.731   5.707   0.693
 2113SOL    HW2 8451   5.636   5.662   0.585
 2113SOL     MW 8452   5.656   5.668   0.670
 2114SOL     OW 8453   5.099   0.071   4.609
 2114SOL    HW1 8454   5.018   0.062   4.661
 2114SOL    HW2 8455   5.085   0.012   4.536
 2114SOL     MW 8456   5.087   0.063   4.607
 2115SOL     OW 8457   5.473   6.103   0.231
 2115SOL    HW1 8458   5.501   6.019   0.195
 2115SOL    HW2 8459   5.474   6.089   0.325
 2115SOL     MW 8460   5.477   6.091   0.238
 2116SOL     OW 8461   0.226   4.720   2.621
 2116SOL    HW1 8462   0.282   4.788   2.661
 2116SOL    HW2 8463   0.242   4.728   2.528
 2116SOL     MW 8464   0.235   4.729   2.615
 2117SOL     OW 8465   5.790   5.048   3.731
 2117SOL    HW1 8466   5.779   5.094   3.647
 2117SOL    HW2 8467   5.706   5.006   3.746
 2117SOL     MW 8468   5.779   5.049   3.723
 2118SOL     OW 8469   2.356   5.735   3.540
 2118SOL    HW1 8470   2.406   5.817   3.531
 2118SOL    HW2 8471   2.357   5.697   3.454
 2118SOL     MW 8472   2.362   5.741   3.529
 2119SOL     OW 8473   5.664   4.105   4.772
 2119SOL    HW1 8474   5.605   4.128   4.845
 2119SOL    HW2 8475   5.627   4.026   4.736
 2119SOL     MW 8476   5.652   4.099   4.777
 2120SOL     OW 8477   3.014   3.085   5.118
 2120SOL    HW1 8478   2.965   3.031   5.182
 2120SOL    HW2 8479   2.975   3.171   5.126
 2120SOL     MW 8480   3.003   3.089   5.127
 2121SOL     OW 8481   3.251   5.720   5.322
 2121SOL    HW1 8482   3.319   5.787   5.313
 2121SOL    HW2 8483   3.230   5.697   5.232
 2121SOL     MW 8484   3.257   5.726   5.310
 2122SOL     OW 8485   0.627   1.200   3.235
 2122SOL    HW1 8486   0.587   1.288   3.246
 2122SOL    HW2 8487   0.576   1.145   3.293
 2122SOL     MW 8488   0.616   1.204   3.243
 2123SOL     OW 8489   4.129   5.592   6.075
 2123SOL    HW1 8490   4.057   5.656   6.074
 2123SOL    HW2 8491   4.179   5.611   5.997
 2123SOL     MW 8492   4.126   5.602   6.065
 2124SOL     OW 8493   3.018   2.676   2.507
 2124SOL    HW1 8494   2.994   2.593   2.465
 2124SOL    HW2 8495   3.035   2.652   2.598
 2124SOL     MW 8496   3.017   2.663   2.513
 2125SOL     OW 8497   2.108   4.885   1.332
 2125SOL    HW1 8498   2.099   4.847   1.243
 2125SOL    HW2 8499   2.142   4.814   1.384
 2125SOL     MW 8500   2.111   4.872   1.327
 2126SOL     OW 8501   3.056   5.579   0.513
 2126SOL    HW1 8502   3.121   5.550   0.449
 2126SOL    HW2 8503   3.097   5.563   0.597
 2126SOL     MW 8504   3.069   5.573   0.515
 2127SOL     OW 8505   3.732   3.741   2.554
 2127SOL    HW1 8506   3.782   3.780   2.482
 2127SOL    HW2 8507   3.799   3.706   2.612
 2127SOL     MW 8508   3.746   3.741   2.552
 2128SOL     OW 8509   1.143   4.183   1.482
 2128SOL    HW1 8510   1.088   4.216   1.411
 2128SOL    HW2 8511   1.122   4.238   1.556
 2128SOL     MW 8512   1.134   4.193   1.483
 2129SOL     OW 8513   3.480   1.807   5.225
 2129SOL    HW1 8514   3.437   1.750   5.290
 2129SOL    HW2 8515   3.496   1.750   5.151
 2129SOL     MW 8516   3.477   1.793   5.224
 2130SOL     OW 8517   1.787   0.239   0.775
 2130SOL    HW1 8518   1.795   0.164   0.834
 2130SOL    HW2 8519   1.701   0.228   0.736
 2130SOL     MW 8520   1.777   0.229   0.778
 2131SOL     OW 8521   2.742   5.279   1.547
 2131SOL    HW1 8522   2.680   5.283   1.473
 2131SOL    HW2 8523   2.709   5.210   1.602
 2131SOL     MW 8524   2.731   5.272   1.544
 2132SOL     OW 8525   1.484   3.064   3.575
 2132SOL    HW1 8526   1.391   3.045   3.593
 2132SOL    HW2 8527   1.531   3.000   3.626
 2132SOL     MW 8528   1.478   3.054   3.583
 2133SOL     OW 8529   5.166   1.358   4.473
 2133SOL    HW1 8530   5.107   1.284   4.493
 2133SOL    HW2 8531   5.160   1.367   4.378
 2133SOL     MW 8532   5.158   1.350   4.464
 2134SOL     OW 8533   0.932   5.443   5.880
 2134SOL    HW1 8534   0.869   5.376   5.851
 2134SOL    HW2 8535   0.938   5.431   5.974
 2134SOL     MW 8536   0.925   5.433   5.888
 2135SOL     OW 8537   0.509   2.581   3.787
 2135SOL    HW1 8538   0.538   2.668   3.759
 2135SOL    HW2 8539   0.493   2.590   3.880
 2135SOL     MW 8540   0.510   2.593   3.794
 2136SOL     OW 8541   5.979   4.592   0.850
 2136SOL    HW1 8542   5.969   4.656   0.921
 2136SOL    HW2 8543   5.989   4.645   0.772
 2136SOL     MW 8544   5.979   4.606   0.849
 2137SOL     OW 8545   0.862   0.329   1.826
 2137SOL    HW1 8546   0.931   0.360   1.767
 2137SOL    HW2 8547   0.869   0.235   1.823
 2137SOL     MW 8548   0.871   0.322   1.819
 2138SOL     OW 8549   0.944   4.337   1.029
 2138SOL    HW1 8550   1.039   4.320   1.025
 2138SOL    HW2 8551   0.931   4.376   1.115
 2138SOL     MW 8552   0.954   4.339   1.039
 2139SOL     OW 8553   2.889   4.200   0.807
 2139SOL    HW1 8554   2.917   4.291   0.791
 2139SOL    HW2 8555   2.797   4.208   0.828
 2139SOL     MW 8556   2.881   4.212   0.808
 2140SOL     OW 8557   3.224   3.089   0.961
 2140SOL    HW1 8558   3.176   3.171   0.944
 2140SOL    HW2 8559   3.267   3.104   1.044
 2140SOL     MW 8560   3.223   3.101   0.969
 2141SOL     OW 8561   0.254   1.072   2.442
 2141SOL    HW1 8562   0.194   1.147   2.429
 2141SOL    HW2 8563   0.321   1.084   2.377
 2141SOL     MW 8564   0.254   1.083   2.433
 2142SOL     OW 8565   3.045   3.743   2.480
 2142SOL    HW1 8566   3.117   3.788   2.524
 2142SOL    HW2 8567   3.025   3.669   2.536
 2142SOL     MW 8568   3.051   3.740   2.492
 2143SOL     OW 8569   3.736   2.299   5.801
 2143SOL    HW1 8570   3.648   2.264   5.817
 2143SOL    HW2 8571   3.744   2.299   5.706
 2143SOL     MW 8572   3.726   2.295   5.791
 2144SOL     OW 8573   5.151   6.031   3.203
 2144SOL    HW1 8574   5.220   5.973   3.237
 2144SOL    HW2 8575   5.155   6.021   3.109
 2144SOL     MW 8576   5.160   6.023   3.196
 2145SOL     OW 8577   4.166   3.830   5.309
 2145SOL    HW1 8578   4.107   3.841   5.234
 2145SOL    HW2 8579   4.172   3.735   5.320
 2145SOL     MW 8580   4.160   3.820   5.301
 2146SOL     OW 8581   3.789   3.155   4.854
 2146SOL    HW1 8582   3.820   3.066   4.876
 2146SOL    HW2 8583   3.771   3.150   4.761
 2146SOL     MW 8584   3.791   3.143   4.846
 2147SOL     OW 8585   3.314   3.873   3.698
 2147SOL    HW1 8586   3.223   3.876   3.731
 2147SOL    HW2 8587   3.332   3.780   3.692
 2147SOL     MW 8588   3.305   3.862   3.701
 2148SOL     OW 8589   5.071   4.553   2.584
 2148SOL    HW1 8590   5.159   4.516   2.601
 2148SOL    HW2 8591   5.011   4.486   2.617
 2148SOL     MW 8592   5.075   4.540   2.590
 2149SOL     OW 8593   4.577   2.662   2.142
 2149SOL    HW1 8594   4.594   2.713   2.062
 2149SOL    HW2 8595   4.662   2.630   2.168
 2149SOL     MW 8596   4.589   2.665   2.135
 2150SOL     OW 8597   5.312   1.532   1.665
 2150SOL    HW1 8598   5.387   1.508   1.609
 2150SOL    HW2 8599   5.332   1.494   1.749
 2150SOL     MW 8600   5.324   1.525   1.668
 2151SOL     OW 8601   5.764   2.889   3.618
 2151SOL    HW1 8602   5.757   2.979   3.584
 2151SOL    HW2 8603   5.777   2.900   3.711
 2151SOL     MW 8604   5.765   2.901   3.625
 2152SOL     OW 8605   4.840   0.186   3.980
 2152SOL    HW1 8606   4.919   0.227   4.016
 2152SOL    HW2 8607   4.839   0.100   4.019
 2152SOL     MW 8608   4.849   0.181   3.989
 2153SOL     OW 8609   0.310   5.519   2.170
 2153SOL    HW1 8610   0.323   5.437   2.121
 2153SOL    HW2 8611   0.311   5.493   2.261
 2153SOL     MW 8612   0.312   5.506   2.175
 2154SOL     OW 8613   2.128   5.461   1.408
 2154SOL    HW1 8614   2.145   5.542   1.458
 2154SOL    HW2 8615   2.162   5.480   1.322
 2154SOL     MW 8616   2.135   5.474   1.404
 2155SOL     OW 8617   2.038   0.299   1.909
 2155SOL    HW1 8618   1.993   0.336   1.832
 2155SOL    HW2 8619   1.992   0.219   1.927
 2155SOL     MW 8620   2.027   0.294   1.902
 2156SOL     OW 8621   2.291   0.292   0.377
 2156SOL    HW1 8622   2.205   0.273   0.416
 2156SOL    HW2 8623   2.275   0.365   0.319
 2156SOL     MW 8624   2.279   0.298   0.375
 2157SOL     OW 8625   0.970   1.224   5.333
 2157SOL    HW1 8626   0.901   1.287   5.359
 2157SOL    HW2 8627   0.930   1.139   5.348
 2157SOL     MW 8628   0.957   1.222   5.338
 2158SOL     OW 8629   3.636   3.216   3.419
 2158SOL    HW1 8630   3.715   3.272   3.417
 2158SOL    HW2 8631   3.585   3.251   3.490
 2158SOL     MW 8632   3.640   3.227   3.427
 2159SOL     OW 8633   5.305   2.030   1.350
 2159SOL    HW1 8634   5.234   2.078   1.394
 2159SOL    HW2 8635   5.291   2.046   1.258
 2159SOL     MW 8636   5.295   2.038   1.345
 2160SOL     OW 8637   2.478   0.930   3.587
 2160SOL    HW1 8638   2.507   0.892   3.503
 2160SOL    HW2 8639   2.555   0.975   3.620
 2160SOL     MW 8640   2.490   0.931   3.580
 2161SOL     OW 8641   1.880   2.278   4.586
 2161SOL    HW1 8642   1.877   2.370   4.559
 2161SOL    HW2 8643   1.884   2.282   4.681
 2161SOL     MW 8644   1.880   2.290   4.594
 2162SOL     OW 8645   1.381   5.823   3.350
 2162SOL    HW1 8646   1.392   5.850   3.258
 2162SOL    HW2 8647   1.445   5.874   3.397
 2162SOL     MW 8648   1.390   5.832   3.344
 2163SOL     OW 8649   1.749   5.605   4.089
 2163SOL    HW1 8650   1.790   5.687   4.060
 2163SOL    HW2 8651   1.736   5.618   4.182
 2163SOL     MW 8652   1.753   5.616   4.097
 2164SOL     OW 8653   3.615   5.161   6.011
 2164SOL    HW1 8654   3.585   5.252   6.007
 2164SOL    HW2 8655   3.634   5.139   5.920
 2164SOL     MW 8656   3.614   5.170   6.000
 2165SOL     OW 8657   5.040   3.192   5.247
 2165SOL    HW1 8658   4.974   3.263   5.251
 2165SOL    HW2 8659   5.003   3.122   5.298
 2165SOL     MW 8660   5.028   3.193   5.253
 2166SOL     OW 8661   0.285   2.129   5.762
 2166SOL    HW1 8662   0.228   2.061   5.726
 2166SOL    HW2 8663   0.335   2.160   5.688
 2166SOL     MW 8664   0.283   2.124   5.749
 2167SOL     OW 8665   4.600   1.966   2.185
 2167SOL    HW1 8666   4.630   2.057   2.172
 2167SOL    HW2 8667   4.651   1.936   2.259
 2167SOL     MW 8668   4.610   1.974   2.192
 2168SOL     OW 8669   3.203   5.746   2.332
 2168SOL    HW1 8670   3.108   5.730   2.330
 2168SOL    HW2 8671   3.232   5.723   2.244
 2168SOL     MW 8672   3.195   5.741   2.321
 2169SOL     OW 8673   3.307   0.026   1.449
 2169SOL    HW1 8674   3.301   0.078   1.368
 2169SOL    HW2 8675   3.368   0.074   1.503
 2169SOL     MW 8676   3.313   0.038   1.445
 2170SOL     OW 8677   3.287   0.470   0.648
 2170SOL    HW1 8678   3.312   0.468   0.555
 2170SOL    HW2 8679   3.209   0.417   0.653
 2170SOL     MW 8680   3.281   0.464   0.637
 2171SOL     OW 8681   3.717   1.507   4.923
 2171SOL    HW1 8682   3.743   1.600   4.929
 2171SOL    HW2 8683   3.655   1.496   4.994
 2171SOL     MW 8684   3.713   1.517   4.932
 2172SOL     OW 8685   4.831   5.199   4.120
 2172SOL    HW1 8686   4.858   5.136   4.187
 2172SOL    HW2 8687   4.776   5.149   4.061
 2172SOL     MW 8688   4.828   5.186   4.122
 2173SOL     OW 8689   4.619   3.101   4.631
 2173SOL    HW1 8690   4.633   3.006   4.634
 2173SOL    HW2 8691   4.690   3.137   4.682
 2173SOL     MW 8692   4.629   3.094   4.637
 2174SOL     OW 8693   4.889   1.745   1.789
 2174SOL    HW1 8694   4.962   1.722   1.730
 2174SOL    HW2 8695   4.866   1.834   1.764
 2174SOL     MW 8696   4.896   1.753   1.779
 2175SOL     OW 8697   1.407   2.764   2.826
 2175SOL    HW1 8698   1.495   2.731   2.804
 2175SOL    HW2 8699   1.397   2.842   2.772
 2175SOL     MW 8700   1.416   2.769   2.817
 2176SOL     OW 8701   2.182   0.457   6.024
 2176SOL    HW1 8702   2.162   0.550   6.008
 2176SOL    HW2 8703   2.149   0.440   6.111
 2176SOL     MW 8704   2.176   0.467   6.032
 2177SOL     OW 8705   1.541   4.240   4.937
 2177SOL    HW1 8706   1.448   4.219   4.921
 2177SOL    HW2 8707   1.552   4.228   5.030
 2177SOL     MW 8708   1.531   4.236   4.946
 2178SOL     OW 8709   1.387   1.388   0.746
 2178SOL    HW1 8710   1.304   1.339   0.739
 2178SOL    HW2 8711   1.428   1.374   0.662
 2178SOL     MW 8712   1.381   1.380   0.735
 2179SOL     OW 8713   1.911   5.004   0.511
 2179SOL    HW1 8714   1.844   5.066   0.481
 2179SOL    HW2 8715   1.947   5.043   0.589
 2179SOL     MW 8716   1.907   5.016   0.517
 2180SOL     OW 8717   3.428   4.406   4.222
 2180SOL    HW1 8718   3.506   4.350   4.213
 2180SOL    HW2 8719   3.407   4.402   4.315
 2180SOL     MW 8720   3.435   4.399   4.232
 2181SOL     OW 8721   2.102   0.744   3.140
 2181SOL    HW1 8722   2.016   0.787   3.148
 2181SOL    HW2 8723   2.109   0.723   3.047
 2181SOL     MW 8724   2.092   0.747   3.130
 2182SOL     OW 8725   1.404   5.764   5.304
 2182SOL    HW1 8726   1.499   5.757   5.311
 2182SOL    HW2 8727   1.390   5.807   5.220
 2182SOL     MW 8728   1.414   5.768   5.295
 2183SOL     OW 8729   3.098   5.577   1.727
 2183SOL    HW1 8730   3.156   5.638   1.681
 2183SOL    HW2 8731   3.111   5.597   1.819
 2183SOL     MW 8732   3.106   5.587   1.732
 2184SOL     OW 8733   5.122   2.003   2.492
 2184SOL    HW1 8734   5.139   2.090   2.454
 2184SOL    HW2 8735   5.115   2.019   2.585
 2184SOL     MW 8736   5.123   2.015   2.498
 2185SOL     OW 8737   3.399   5.985   1.255
 2185SOL    HW1 8738   3.452   6.009   1.179
 2185SOL    HW2 8739   3.386   6.066   1.302
 2185SOL     MW 8740   3.404   5.997   1.251
 2186SOL     OW 8741   0.205   3.579   2.161
 2186SOL    HW1 8742   0.233   3.576   2.069
 2186SOL    HW2 8743   0.111   3.590   2.156
 2186SOL     MW 8744   0.197   3.580   2.150
 2187SOL     OW 8745   4.650   3.570   5.562
 2187SOL    HW1 8746   4.663   3.526   5.478
 2187SOL    HW2 8747   4.651   3.500   5.626
 2187SOL     MW 8748   4.652   3.557   5.559
 2188SOL     OW 8749   3.671   3.801   2.042
 2188SOL    HW1 8750   3.600   3.864   2.024
 2188SOL    HW2 8751   3.714   3.790   1.959
 2188SOL     MW 8752   3.667   3.808   2.030
 2189SOL     OW 8753   5.589   3.165   2.920
 2189SOL    HW1 8754   5.645   3.110   2.976
 2189SOL    HW2 8755   5.649   3.204   2.858
 2189SOL     MW 8756   5.603   3.163   2.920
 2190SOL     OW 8757   5.555   3.602   3.256
 2190SOL    HW1 8758   5.475   3.589   3.307
 2190SOL    HW2 8759   5.526   3.602   3.166
 2190SOL     MW 8760   5.542   3.600   3.251
 2191SOL     OW 8761   3.300   3.391   3.992
 2191SOL    HW1 8762   3.238   3.394   4.065
 2191SOL    HW2 8763   3.267   3.456   3.930
 2191SOL     MW 8764   3.289   3.399   3.993
 2192SOL     OW 8765   4.438   1.373   5.747
 2192SOL    HW1 8766   4.406   1.310   5.813
 2192SOL    HW2 8767   4.393   1.348   5.668
 2192SOL     MW 8768   4.429   1.362   5.746
 2193SOL     OW 8769   2.980   4.470   1.758
 2193SOL    HW1 8770   3.024   4.412   1.822
 2193SOL    HW2 8771   2.941   4.410   1.696
 2193SOL     MW 8772   2.981   4.455   1.759
 2194SOL     OW 8773   3.705   0.069   3.646
 2194SOL    HW1 8774   3.682   0.114   3.564
 2194SOL    HW2 8775   3.690   0.135   3.713
 2194SOL     MW 8776   3.700   0.083   3.644
 2195SOL     OW 8777   4.397   0.471   5.758
 2195SOL    HW1 8778   4.398   0.415   5.680
 2195SOL    HW2 8779   4.457   0.429   5.818
 2195SOL     MW 8780   4.404   0.459   5.756
 2196SOL     OW 8781   0.630   3.770   3.586
 2196SOL    HW1 8782   0.547   3.774   3.538
 2196SOL    HW2 8783   0.693   3.807   3.526
 2196SOL     MW 8784   0.628   3.775   3.573
 2197SOL     OW 8785   0.896   0.162   6.015
 2197SOL    HW1 8786   0.958   0.090   6.029
 2197SOL    HW2 8787   0.908   0.219   6.090
 2197SOL     MW 8788   0.905   0.160   6.025
 2198SOL     OW 8789   3.016   0.425   2.197
 2198SOL    HW1 8790   3.047   0.514   2.182
 2198SOL    HW2 8791   3.088   0.382   2.241
 2198SOL     MW 8792   3.028   0.431   2.201
 2199SOL     OW 8793   4.431   0.244   5.990
 2199SOL    HW1 8794   4.490   0.282   6.057
 2199SOL    HW2 8795   4.412   0.157   6.022
 2199SOL     MW 8796   4.436   0.239   6.002
 2200SOL     OW 8797   1.805   6.036   0.043
 2200SOL    HW1 8798   1.810   6.073  -0.046
 2200SOL    HW2 8799   1.770   5.948   0.030
 2200SOL     MW 8800   1.801   6.030   0.030
 2201SOL     OW 8801   5.385   5.344   4.548
 2201SOL    HW1 8802   5.336   5.263   4.527
 2201SOL    HW2 8803   5.475   5.316   4.555
 2201SOL     MW 8804   5.389   5.331   4.546
 2202SOL     OW 8805   3.998   0.992   4.312
 2202SOL    HW1 8806   4.091   1.013   4.326
 2202SOL    HW2 8807   3.970   0.954   4.394
 2202SOL     MW 8808   4.006   0.990   4.324
 2203SOL     OW 8809   1.283   0.782   1.560
 2203SOL    HW1 8810   1.336   0.725   1.616
 2203SOL    HW2 8811   1.301   0.751   1.472
 2203SOL     MW 8812   1.292   0.772   1.556
 2204SOL     OW 8813   0.665   5.916   4.670
 2204SOL    HW1 8814   0.629   5.930   4.758
 2204SOL    HW2 8815   0.753   5.882   4.686
 2204SOL     MW 8816   0.671   5.914   4.682
 2205SOL     OW 8817   3.201   2.044   2.000
 2205SOL    HW1 8818   3.173   2.089   1.919
 2205SOL    HW2 8819   3.164   1.957   1.991
 2205SOL     MW 8820   3.193   2.039   1.989
 2206SOL     OW 8821   5.719   2.807   2.091
 2206SOL    HW1 8822   5.652   2.740   2.073
 2206SOL    HW2 8823   5.764   2.817   2.008
 2206SOL     MW 8824   5.716   2.800   2.079
 2207SOL     OW 8825   0.316   4.329   4.612
 2207SOL    HW1 8826   0.333   4.235   4.626
 2207SOL    HW2 8827   0.396   4.361   4.573
 2207SOL     MW 8828   0.327   4.321   4.609
 2208SOL     OW 8829   0.639   2.270   3.856
 2208SOL    HW1 8830   0.565   2.322   3.822
 2208SOL    HW2 8831   0.634   2.281   3.950
 2208SOL     MW 8832   0.629   2.277   3.863
 2209SOL     OW 8833   5.033   5.112   5.547
 2209SOL    HW1 8834   5.104   5.105   5.482
 2209SOL    HW2 8835   5.072   5.078   5.627
 2209SOL     MW 8836   5.047   5.107   5.549
 2210SOL     OW 8837   2.579   3.385   1.011
 2210SOL    HW1 8838   2.620   3.321   1.070
 2210SOL    HW2 8839   2.530   3.332   0.949
 2210SOL     MW 8840   2.578   3.371   1.011
 2211SOL     OW 8841   0.040   1.453   0.905
 2211SOL    HW1 8842  -0.030   1.442   0.970
 2211SOL    HW2 8843   0.006   1.412   0.827
 2211SOL     MW 8844   0.028   1.446   0.904
 2212SOL     OW 8845   5.671   4.020   1.039
 2212SOL    HW1 8846   5.694   4.114   1.037
 2212SOL    HW2 8847   5.658   4.001   1.131
 2212SOL     MW 8848   5.672   4.029   1.049
 2213SOL     OW 8849   5.199   3.464   1.572
 2213SOL    HW1 8850   5.175   3.429   1.485
 2213SOL    HW2 8851   5.241   3.390   1.615
 2213SOL     MW 8852   5.201   3.451   1.566
 2214SOL     OW 8853   5.056   1.508   2.249
 2214SOL    HW1 8854   4.988   1.565   2.212
 2214SOL    HW2 8855   5.034   1.501   2.341
 2214SOL     MW 8856   5.045   1.514   2.255
 2215SOL     OW 8857   0.561   0.104   3.752
 2215SOL    HW1 8858   0.481   0.088   3.802
 2215SOL    HW2 8859   0.575   0.198   3.760
 2215SOL     MW 8860   0.553   0.113   3.759
 2216SOL     OW 8861   5.892   3.517   1.418
 2216SOL    HW1 8862   5.840   3.577   1.363
 2216SOL    HW2 8863   5.964   3.491   1.362
 2216SOL     MW 8864   5.894   3.521   1.404
 2217SOL     OW 8865   1.346   0.792   4.161
 2217SOL    HW1 8866   1.375   0.865   4.216
 2217SOL    HW2 8867   1.375   0.714   4.207
 2217SOL     MW 8868   1.353   0.792   4.173
 2218SOL     OW 8869   2.128   0.257   3.844
 2218SOL    HW1 8870   2.134   0.166   3.877
 2218SOL    HW2 8871   2.163   0.309   3.915
 2218SOL     MW 8872   2.133   0.252   3.856
 2219SOL     OW 8873   0.560   5.868   0.791
 2219SOL    HW1 8874   0.604   5.852   0.707
 2219SOL    HW2 8875   0.471   5.888   0.766
 2219SOL     MW 8876   0.555   5.868   0.778
 2220SOL     OW 8877   2.609   1.902   2.781
 2220SOL    HW1 8878   2.696   1.917   2.744
 2220SOL    HW2 8879   2.623   1.899   2.874
 2220SOL     MW 8880   2.621   1.904   2.787
 2221SOL     OW 8881   2.254   1.891   3.025
 2221SOL    HW1 8882   2.261   1.798   3.048
 2221SOL    HW2 8883   2.201   1.892   2.946
 2221SOL     MW 8884   2.248   1.880   3.019
 2222SOL     OW 8885   2.651   4.751   3.347
 2222SOL    HW1 8886   2.687   4.695   3.278
 2222SOL    HW2 8887   2.579   4.797   3.306
 2222SOL     MW 8888   2.647   4.750   3.334
 2223SOL     OW 8889   4.297   5.393   2.260
 2223SOL    HW1 8890   4.379   5.413   2.213
 2223SOL    HW2 8891   4.234   5.378   2.190
 2223SOL     MW 8892   4.299   5.394   2.246
 2224SOL     OW 8893   1.559   1.179   1.910
 2224SOL    HW1 8894   1.538   1.245   1.843
 2224SOL    HW2 8895   1.551   1.097   1.864
 2224SOL     MW 8896   1.555   1.178   1.896
 2225SOL     OW 8897   3.855   2.012   0.994
 2225SOL    HW1 8898   3.920   1.994   0.926
 2225SOL    HW2 8899   3.781   1.957   0.970
 2225SOL     MW 8900   3.854   2.003   0.983
 2226SOL     OW 8901   3.871   3.224   3.413
 2226SOL    HW1 8902   3.898   3.154   3.472
 2226SOL    HW2 8903   3.931   3.218   3.340
 2226SOL     MW 8904   3.881   3.215   3.411
 2227SOL     OW 8905   4.277   3.832   4.371
 2227SOL    HW1 8906   4.361   3.798   4.406
 2227SOL    HW2 8907   4.249   3.894   4.437
 2227SOL     MW 8908   4.284   3.835   4.383
 2228SOL     OW 8909   4.724   0.754   0.207
 2228SOL    HW1 8910   4.737   0.669   0.249
 2228SOL    HW2 8911   4.714   0.734   0.115
 2228SOL     MW 8912   4.724   0.741   0.201
 2229SOL     OW 8913   0.961   1.377   4.471
 2229SOL    HW1 8914   0.933   1.358   4.561
 2229SOL    HW2 8915   0.937   1.467   4.457
 2229SOL     MW 8916   0.955   1.385   4.481
 2230SOL     OW 8917   2.644   5.988   2.815
 2230SOL    HW1 8918   2.729   5.954   2.784
 2230SOL    HW2 8919   2.656   6.001   2.908
 2230SOL     MW 8920   2.656   5.986   2.822
 2231SOL     OW 8921   2.558   2.384   3.453
 2231SOL    HW1 8922   2.549   2.415   3.362
 2231SOL    HW2 8923   2.642   2.339   3.454
 2231SOL     MW 8924   2.567   2.383   3.442
 2232SOL     OW 8925   1.152   1.156   1.768
 2232SOL    HW1 8926   1.096   1.201   1.832
 2232SOL    HW2 8927   1.122   1.066   1.770
 2232SOL     MW 8928   1.141   1.151   1.776
 2233SOL     OW 8929   4.357   1.125   1.944
 2233SOL    HW1 8930   4.307   1.057   1.897
 2233SOL    HW2 8931   4.353   1.099   2.035
 2233SOL     MW 8932   4.351   1.113   1.949
 2234SOL     OW 8933   1.667   1.684   0.942
 2234SOL    HW1 8934   1.710   1.604   0.974
 2234SOL    HW2 8935   1.664   1.672   0.848
 2234SOL     MW 8936   1.672   1.673   0.935
 2235SOL     OW 8937   1.273   0.355   4.729
 2235SOL    HW1 8938   1.275   0.439   4.683
 2235SOL    HW2 8939   1.287   0.378   4.820
 2235SOL     MW 8940   1.275   0.368   4.734
 2236SOL     OW 8941   1.807   4.016   6.107
 2236SOL    HW1 8942   1.892   4.033   6.064
 2236SOL    HW2 8943   1.744   4.022   6.036
 2236SOL     MW 8944   1.810   4.019   6.093
 2237SOL     OW 8945   0.699   2.124   5.056
 2237SOL    HW1 8946   0.733   2.096   5.141
 2237SOL    HW2 8947   0.645   2.052   5.027
 2237SOL     MW 8948   0.697   2.112   5.063
 2238SOL     OW 8949   2.380   4.483   4.549
 2238SOL    HW1 8950   2.306   4.435   4.510
 2238SOL    HW2 8951   2.386   4.449   4.637
 2238SOL     MW 8952   2.372   4.473   4.554
 2239SOL     OW 8953   0.225   2.933   2.666
 2239SOL    HW1 8954   0.310   2.927   2.710
 2239SOL    HW2 8955   0.186   3.012   2.701
 2239SOL     MW 8956   0.231   2.941   2.675
 2240SOL     OW 8957   0.697   3.106   0.497
 2240SOL    HW1 8958   0.733   3.021   0.524
 2240SOL    HW2 8959   0.655   3.088   0.414
 2240SOL     MW 8960   0.696   3.094   0.490
 2241SOL     OW 8961   4.721   2.443   1.765
 2241SOL    HW1 8962   4.688   2.435   1.675
 2241SOL    HW2 8963   4.659   2.501   1.807
 2241SOL     MW 8964   4.709   2.449   1.759
 2242SOL     OW 8965   3.920   3.641   3.664
 2242SOL    HW1 8966   3.905   3.589   3.585
 2242SOL    HW2 8967   3.844   3.625   3.718
 2242SOL     MW 8968   3.909   3.633   3.661
 2243SOL     OW 8969   6.030   1.216   0.708
 2243SOL    HW1 8970   6.109   1.270   0.699
 2243SOL    HW2 8971   6.026   1.166   0.627
 2243SOL     MW 8972   6.039   1.217   0.697
 2244SOL     OW 8973   3.889   0.979   0.192
 2244SOL    HW1 8974   3.880   0.889   0.225
 2244SOL    HW2 8975   3.904   0.969   0.099
 2244SOL     MW 8976   3.890   0.967   0.185
 2245SOL     OW 8977   4.276   0.674   2.299
 2245SOL    HW1 8978   4.312   0.763   2.289
 2245SOL    HW2 8979   4.240   0.673   2.387
 2245SOL     MW 8980   4.276   0.685   2.309
 2246SOL     OW 8981   3.453   3.516   5.535
 2246SOL    HW1 8982   3.478   3.431   5.574
 2246SOL    HW2 8983   3.525   3.536   5.477
 2246SOL     MW 8984   3.465   3.508   5.533
 2247SOL     OW 8985   4.857   1.007   5.944
 2247SOL    HW1 8986   4.778   1.016   5.891
 2247SOL    HW2 8987   4.825   0.995   6.033
 2247SOL     MW 8988   4.844   1.007   5.948
 2248SOL     OW 8989   3.516   0.730   6.094
 2248SOL    HW1 8990   3.607   0.717   6.124
 2248SOL    HW2 8991   3.491   0.646   6.057
 2248SOL     MW 8992   3.524   0.719   6.093
 2249SOL     OW 8993   4.011   1.806   4.074
 2249SOL    HW1 8994   3.917   1.806   4.095
 2249SOL    HW2 8995   4.043   1.888   4.108
 2249SOL     MW 8996   4.003   1.816   4.081
 2250SOL     OW 8997   2.324   5.406   0.122
 2250SOL    HW1 8998   2.383   5.455   0.180
 2250SOL    HW2 8999   2.369   5.403   0.039
 2250SOL     MW 9000   2.336   5.412   0.119
 2251SOL     OW 9001   2.903   2.563   5.011
 2251SOL    HW1 9002   2.888   2.470   5.030
 2251SOL    HW2 9003   2.858   2.608   5.080
 2251SOL     MW 9004   2.896   2.557   5.021
 2252SOL     OW 9005   0.588   4.205   3.998
 2252SOL    HW1 9006   0.656   4.150   3.957
 2252SOL    HW2 9007   0.606   4.198   4.091
 2252SOL     MW 9008   0.599   4.197   4.004
 2253SOL     OW 9009   2.676   0.990   2.963
 2253SOL    HW1 9010   2.709   0.908   2.926
 2253SOL    HW2 9011   2.694   0.982   3.056
 2253SOL     MW 9012   2.682   0.979   2.970
 2254SOL     OW 9013   4.635   2.918   0.790
 2254SOL    HW1 9014   4.644   3.000   0.839
 2254SOL    HW2 9015   4.661   2.941   0.701
 2254SOL     MW 9016   4.639   2.930   0.785
 2255SOL     OW 9017   6.038   3.226   1.334
 2255SOL    HW1 9018   6.075   3.147   1.294
 2255SOL    HW2 9019   6.047   3.212   1.428
 2255SOL     MW 9020   6.044   3.215   1.340
 2256SOL     OW 9021   4.103   3.872   4.234
 2256SOL    HW1 9022   4.163   3.918   4.174
 2256SOL    HW2 9023   4.017   3.887   4.197
 2256SOL     MW 9024   4.100   3.880   4.222
 2257SOL     OW 9025   1.359   2.563   4.377
 2257SOL    HW1 9026   1.309   2.497   4.328
 2257SOL    HW2 9027   1.420   2.598   4.314
 2257SOL     MW 9028   1.360   2.559   4.363
 2258SOL     OW 9029   3.866   0.969   3.028
 2258SOL    HW1 9030   3.922   1.046   3.042
 2258SOL    HW2 9031   3.879   0.916   3.106
 2258SOL     MW 9032   3.874   0.972   3.039
 2259SOL     OW 9033   3.701   0.045   4.538
 2259SOL    HW1 9034   3.718   0.098   4.460
 2259SOL    HW2 9035   3.738   0.096   4.609
 2259SOL     MW 9036   3.708   0.057   4.537
 2260SOL     OW 9037   6.080   2.483   0.750
 2260SOL    HW1 9038   6.002   2.500   0.697
 2260SOL    HW2 9039   6.047   2.471   0.838
 2260SOL     MW 9040   6.067   2.483   0.754
 2261SOL     OW 9041   5.527   1.841   3.896
 2261SOL    HW1 9042   5.535   1.935   3.914
 2261SOL    HW2 9043   5.528   1.834   3.802
 2261SOL     MW 9044   5.528   1.851   3.887
 2262SOL     OW 9045   2.671   5.725   1.274
 2262SOL    HW1 9046   2.584   5.756   1.245
 2262SOL    HW2 9047   2.657   5.634   1.296
 2262SOL     MW 9048   2.659   5.718   1.273
 2263SOL     OW 9049   0.315   1.963   4.136
 2263SOL    HW1 9050   0.284   1.873   4.131
 2263SOL    HW2 9051   0.372   1.973   4.061
 2263SOL     MW 9052   0.318   1.953   4.127
 2264SOL     OW 9053   5.038   1.905   2.151
 2264SOL    HW1 9054   5.093   1.836   2.112
 2264SOL    HW2 9055   4.969   1.857   2.196
 2264SOL     MW 9056   5.037   1.891   2.152
 2265SOL     OW 9057   4.980   2.362   3.689
 2265SOL    HW1 9058   4.971   2.376   3.784
 2265SOL    HW2 9059   5.073   2.372   3.673
 2265SOL     MW 9060   4.990   2.365   3.699
 2266SOL     OW 9061   1.025   0.724   5.126
 2266SOL    HW1 9062   1.110   0.767   5.140
 2266SOL    HW2 9063   1.035   0.680   5.042
 2266SOL     MW 9064   1.037   0.724   5.117
 2267SOL     OW 9065   0.043   1.118   2.647
 2267SOL    HW1 9066   0.123   1.086   2.603
 2267SOL    HW2 9067  -0.003   1.039   2.672
 2267SOL     MW 9068   0.048   1.105   2.644
 2268SOL     OW 9069   4.624   2.707   1.314
 2268SOL    HW1 9070   4.680   2.782   1.337
 2268SOL    HW2 9071   4.624   2.707   1.219
 2268SOL     MW 9072   4.631   2.716   1.306
 2269SOL     OW 9073   3.859   4.390   4.819
 2269SOL    HW1 9074   3.945   4.352   4.838
 2269SOL    HW2 9075   3.863   4.413   4.727
 2269SOL     MW 9076   3.870   4.388   4.810
 2270SOL     OW 9077   1.766   3.409   3.342
 2270SOL    HW1 9078   1.757   3.411   3.438
 2270SOL    HW2 9079   1.762   3.317   3.320
 2270SOL     MW 9080   1.764   3.398   3.351
 2271SOL     OW 9081   4.236   0.920   3.274
 2271SOL    HW1 9082   4.289   0.858   3.326
 2271SOL    HW2 9083   4.202   0.867   3.203
 2271SOL     MW 9084   4.238   0.906   3.272
 2272SOL     OW 9085   0.312   1.832   0.565
 2272SOL    HW1 9086   0.353   1.917   0.578
 2272SOL    HW2 9087   0.226   1.852   0.529
 2272SOL     MW 9088   0.307   1.845   0.562
 2273SOL     OW 9089   3.549   2.811   1.594
 2273SOL    HW1 9090   3.528   2.904   1.580
 2273SOL    HW2 9091   3.472   2.776   1.636
 2273SOL     MW 9092   3.538   2.819   1.597
 2274SOL     OW 9093   0.971   3.098   0.564
 2274SOL    HW1 9094   1.001   3.182   0.527
 2274SOL    HW2 9095   1.040   3.074   0.625
 2274SOL     MW 9096   0.983   3.105   0.567
 2275SOL     OW 9097   4.173   5.892   2.772
 2275SOL    HW1 9098   4.095   5.876   2.717
 2275SOL    HW2 9099   4.228   5.816   2.757
 2275SOL     MW 9100   4.170   5.881   2.763
 2276SOL     OW 9101   1.468   2.391   0.417
 2276SOL    HW1 9102   1.519   2.453   0.469
 2276SOL    HW2 9103   1.435   2.328   0.480
 2276SOL     MW 9104   1.470   2.391   0.431
 2277SOL     OW 9105   4.322   4.153   1.407
 2277SOL    HW1 9106   4.347   4.242   1.381
 2277SOL    HW2 9107   4.332   4.102   1.327
 2277SOL     MW 9108   4.326   4.158   1.394
 2278SOL     OW 9109   1.715   0.984   0.335
 2278SOL    HW1 9110   1.668   0.911   0.375
 2278SOL    HW2 9111   1.706   0.969   0.241
 2278SOL     MW 9112   1.708   0.974   0.329
 2279SOL     OW 9113   4.916   1.212   5.926
 2279SOL    HW1 9114   4.999   1.240   5.885
 2279SOL    HW2 9115   4.934   1.213   6.019
 2279SOL     MW 9116   4.928   1.216   5.932
 2280SOL     OW 9117   5.720   0.270   4.038
 2280SOL    HW1 9118   5.715   0.196   4.100
 2280SOL    HW2 9119   5.630   0.282   4.010
 2280SOL     MW 9120   5.709   0.262   4.042
 2281SOL     OW 9121   4.397   5.931   3.680
 2281SOL    HW1 9122   4.419   5.868   3.750
 2281SOL    HW2 9123   4.376   6.011   3.727
 2281SOL     MW 9124   4.397   5.933   3.694
 2282SOL     OW 9125   5.899   4.741   0.449
 2282SOL    HW1 9126   5.886   4.646   0.465
 2282SOL    HW2 9127   5.904   4.778   0.536
 2282SOL     MW 9128   5.898   4.733   0.461
 2283SOL     OW 9129   4.768   0.822   5.638
 2283SOL    HW1 9130   4.812   0.802   5.555
 2283SOL    HW2 9131   4.758   0.916   5.637
 2283SOL     MW 9132   4.772   0.831   5.628
 2284SOL     OW 9133   2.694   4.834   4.746
 2284SOL    HW1 9134   2.741   4.863   4.667
 2284SOL    HW2 9135   2.745   4.870   4.818
 2284SOL     MW 9136   2.706   4.842   4.745
 2285SOL     OW 9137   3.282   2.807   2.189
 2285SOL    HW1 9138   3.367   2.807   2.236
 2285SOL    HW2 9139   3.260   2.715   2.182
 2285SOL     MW 9140   3.290   2.796   2.194
 2286SOL     OW 9141   5.900   0.311   1.851
 2286SOL    HW1 9142   5.828   0.340   1.908
 2286SOL    HW2 9143   5.859   0.295   1.767
 2286SOL     MW 9144   5.886   0.313   1.848
 2287SOL     OW 9145   2.536   0.317   5.558
 2287SOL    HW1 9146   2.551   0.362   5.474
 2287SOL    HW2 9147   2.534   0.225   5.535
 2287SOL     MW 9148   2.538   0.312   5.545
 2288SOL     OW 9149   2.556   1.115   2.274
 2288SOL    HW1 9150   2.521   1.055   2.340
 2288SOL    HW2 9151   2.626   1.066   2.233
 2288SOL     MW 9152   2.560   1.102   2.277
 2289SOL     OW 9153   2.394   1.065   4.206
 2289SOL    HW1 9154   2.338   0.992   4.176
 2289SOL    HW2 9155   2.404   1.120   4.130
 2289SOL     MW 9156   2.388   1.062   4.193
 2290SOL     OW 9157   2.972   4.898   1.989
 2290SOL    HW1 9158   2.921   4.829   1.946
 2290SOL    HW2 9159   3.026   4.852   2.051
 2290SOL     MW 9160   2.972   4.884   1.991
 2291SOL     OW 9161   5.511   2.918   0.500
 2291SOL    HW1 9162   5.592   2.883   0.541
 2291SOL    HW2 9163   5.526   2.907   0.407
 2291SOL     MW 9164   5.523   2.912   0.494
 2292SOL     OW 9165   2.813   5.624   4.079
 2292SOL    HW1 9166   2.853   5.548   4.036
 2292SOL    HW2 9167   2.735   5.641   4.029
 2292SOL     MW 9168   2.809   5.617   4.068
 2293SOL     OW 9169   1.288   5.367   2.218
 2293SOL    HW1 9170   1.249   5.455   2.217
 2293SOL    HW2 9171   1.292   5.342   2.127
 2293SOL     MW 9172   1.284   5.375   2.207
 2294SOL     OW 9173   0.196   3.802   0.208
 2294SOL    HW1 9174   0.286   3.833   0.204
 2294SOL    HW2 9175   0.188   3.766   0.296
 2294SOL     MW 9176   0.206   3.801   0.218
 2295SOL     OW 9177   1.534   1.522   3.907
 2295SOL    HW1 9178   1.607   1.580   3.934
 2295SOL    HW2 9179   1.570   1.471   3.835
 2295SOL     MW 9180   1.547   1.523   3.902
 2296SOL     OW 9181   0.586   1.614   3.128
 2296SOL    HW1 9182   0.671   1.635   3.087
 2296SOL    HW2 9183   0.602   1.622   3.221
 2296SOL     MW 9184   0.598   1.618   3.134
 2297SOL     OW 9185   4.447   0.826   2.848
 2297SOL    HW1 9186   4.370   0.779   2.881
 2297SOL    HW2 9187   4.488   0.862   2.925
 2297SOL     MW 9188   4.442   0.825   2.861
 2298SOL     OW 9189   4.068   3.761   2.489
 2298SOL    HW1 9190   3.983   3.801   2.469
 2298SOL    HW2 9191   4.102   3.735   2.405
 2298SOL     MW 9192   4.061   3.763   2.477
 2299SOL     OW 9193   2.498   1.481   3.689
 2299SOL    HW1 9194   2.463   1.562   3.650
 2299SOL    HW2 9195   2.431   1.453   3.749
 2299SOL     MW 9196   2.486   1.487   3.691
 2300SOL     OW 9197   2.687   2.413   5.570
 2300SOL    HW1 9198   2.612   2.453   5.526
 2300SOL    HW2 9199   2.734   2.487   5.607
 2300SOL     MW 9200   2.684   2.427   5.569
 2301SOL     OW 9201   4.487   2.220   2.738
 2301SOL    HW1 9202   4.433   2.158   2.787
 2301SOL    HW2 9203   4.474   2.196   2.647
 2301SOL     MW 9204   4.479   2.209   2.733
 2302SOL     OW 9205   3.090   1.045   6.081
 2302SOL    HW1 9206   3.101   0.960   6.038
 2302SOL    HW2 9207   3.091   1.025   6.174
 2302SOL     MW 9208   3.092   1.032   6.087
 2303SOL     OW 9209   1.751   1.915   1.030
 2303SOL    HW1 9210   1.806   1.941   0.955
 2303SOL    HW2 9211   1.813   1.904   1.102
 2303SOL     MW 9212   1.765   1.917   1.030
 2304SOL     OW 9213   2.803   5.372   0.346
 2304SOL    HW1 9214   2.778   5.350   0.255
 2304SOL    HW2 9215   2.724   5.355   0.396
 2304SOL     MW 9216   2.790   5.367   0.341
 2305SOL     OW 9217   4.769   5.609   3.875
 2305SOL    HW1 9218   4.712   5.635   3.803
 2305SOL    HW2 9219   4.729   5.646   3.952
 2305SOL     MW 9220   4.757   5.616   3.876
 2306SOL     OW 9221   1.860   0.282   5.546
 2306SOL    HW1 9222   1.925   0.353   5.544
 2306SOL    HW2 9223   1.785   0.317   5.501
 2306SOL     MW 9224   1.859   0.295   5.540
 2307SOL     OW 9225   1.452   0.414   1.147
 2307SOL    HW1 9226   1.477   0.482   1.210
 2307SOL    HW2 9227   1.472   0.452   1.062
 2307SOL     MW 9228   1.457   0.427   1.144
 2308SOL     OW 9229   5.613   1.434   3.637
 2308SOL    HW1 9230   5.524   1.444   3.672
 2308SOL    HW2 9231   5.656   1.516   3.658
 2308SOL     MW 9232   5.607   1.445   3.644
 2309SOL     OW 9233   5.233   4.609   3.728
 2309SOL    HW1 9234   5.322   4.582   3.753
 2309SOL    HW2 9235   5.183   4.601   3.809
 2309SOL     MW 9236   5.238   4.605   3.741
 2310SOL     OW 9237   0.875   0.726   0.119
 2310SOL    HW1 9238   0.909   0.679   0.042
 2310SOL    HW2 9239   0.842   0.808   0.084
 2310SOL     MW 9240   0.875   0.730   0.106
 2311SOL     OW 9241   0.794   0.770   0.546
 2311SOL    HW1 9242   0.867   0.745   0.489
 2311SOL    HW2 9243   0.831   0.836   0.603
 2311SOL     MW 9244   0.808   0.775   0.546
 2312SOL     OW 9245   2.113   1.617   5.265
 2312SOL    HW1 9246   2.185   1.601   5.203
 2312SOL    HW2 9247   2.081   1.530   5.285
 2312SOL     MW 9248   2.118   1.604   5.260
 2313SOL     OW 9249   0.786   0.393   2.857
 2313SOL    HW1 9250   0.691   0.400   2.844
 2313SOL    HW2 9251   0.797   0.406   2.950
 2313SOL     MW 9252   0.776   0.396   2.866
 2314SOL     OW 9253   4.740   4.414   2.561
 2314SOL    HW1 9254   4.735   4.456   2.647
 2314SOL    HW2 9255   4.719   4.323   2.577
 2314SOL     MW 9256   4.737   4.408   2.573
 2315SOL     OW 9257   5.922   5.317   2.553
 2315SOL    HW1 9258   5.904   5.411   2.565
 2315SOL    HW2 9259   5.994   5.300   2.612
 2315SOL     MW 9260   5.929   5.327   2.561
 2316SOL     OW 9261   6.009   0.217   3.636
 2316SOL    HW1 9262   5.934   0.159   3.622
 2316SOL    HW2 9263   6.021   0.219   3.730
 2316SOL     MW 9264   6.001   0.210   3.645
 2317SOL     OW 9265   1.782   5.691   0.672
 2317SOL    HW1 9266   1.699   5.670   0.629
 2317SOL    HW2 9267   1.765   5.676   0.764
 2317SOL     MW 9268   1.770   5.687   0.678
 2318SOL     OW 9269   2.526   3.702   4.832
 2318SOL    HW1 9270   2.591   3.631   4.841
 2318SOL    HW2 9271   2.572   3.779   4.862
 2318SOL     MW 9272   2.540   3.702   4.837
 2319SOL     OW 9273   3.471   3.670   4.859
 2319SOL    HW1 9274   3.458   3.661   4.764
 2319SOL    HW2 9275   3.430   3.593   4.896
 2319SOL     MW 9276   3.465   3.660   4.852
 2320SOL     OW 9277   0.596   3.561   2.445
 2320SOL    HW1 9278   0.659   3.497   2.481
 2320SOL    HW2 9279   0.650   3.623   2.399
 2320SOL     MW 9280   0.610   3.561   2.444
 2321SOL     OW 9281   5.279   1.441   0.111
 2321SOL    HW1 9282   5.315   1.526   0.085
 2321SOL    HW2 9283   5.280   1.443   0.206
 2321SOL     MW 9284   5.284   1.451   0.119
 2322SOL     OW 9285   4.719   2.839   2.935
 2322SOL    HW1 9286   4.804   2.856   2.976
 2322SOL    HW2 9287   4.738   2.837   2.842
 2322SOL     MW 9288   4.732   2.841   2.929
 2323SOL     OW 9289   1.233   1.717   4.921
 2323SOL    HW1 9290   1.204   1.662   4.847
 2323SOL    HW2 9291   1.187   1.683   4.996
 2323SOL     MW 9292   1.224   1.706   4.921
 2324SOL     OW 9293   0.729   0.394   5.799
 2324SOL    HW1 9294   0.669   0.468   5.807
 2324SOL    HW2 9295   0.766   0.403   5.712
 2324SOL     MW 9296   0.726   0.404   5.790
 2325SOL     OW 9297   5.625   2.356   3.495
 2325SOL    HW1 9298   5.663   2.417   3.559
 2325SOL    HW2 9299   5.635   2.400   3.412
 2325SOL     MW 9300   5.631   2.369   3.493
 2326SOL     OW 9301   1.805   3.527   4.719
 2326SOL    HW1 9302   1.850   3.465   4.661
 2326SOL    HW2 9303   1.824   3.496   4.806
 2326SOL     MW 9304   1.813   3.516   4.722
 2327SOL     OW 9305   0.042   0.205   2.945
 2327SOL    HW1 9306  -0.019   0.253   3.002
 2327SOL    HW2 9307  -0.013   0.144   2.897
 2327SOL     MW 9308   0.028   0.204   2.946
 2328SOL     OW 9309   5.880   3.207   1.919
 2328SOL    HW1 9310   5.927   3.124   1.911
 2328SOL    HW2 9311   5.940   3.263   1.967
 2328SOL     MW 9312   5.893   3.204   1.924
 2329SOL     OW 9313   5.342   1.537   1.246
 2329SOL    HW1 9314   5.325   1.513   1.154
 2329SOL    HW2 9315   5.261   1.516   1.290
 2329SOL     MW 9316   5.330   1.531   1.240
 2330SOL     OW 9317   5.482   2.941   2.186
 2330SOL    HW1 9318   5.438   2.935   2.101
 2330SOL    HW2 9319   5.546   2.871   2.185
 2330SOL     MW 9320   5.484   2.932   2.175
 2331SOL     OW 9321   5.570   3.299   3.339
 2331SOL    HW1 9322   5.520   3.228   3.380
 2331SOL    HW2 9323   5.551   3.291   3.247
 2331SOL     MW 9324   5.562   3.289   3.333
 2332SOL     OW 9325   3.364   0.818   2.579
 2332SOL    HW1 9326   3.443   0.847   2.626
 2332SOL    HW2 9327   3.334   0.895   2.532
 2332SOL     MW 9328   3.370   0.831   2.579
 2333SOL     OW 9329   5.894   3.628   3.520
 2333SOL    HW1 9330   5.877   3.546   3.567
 2333SOL    HW2 9331   5.881   3.605   3.429
 2333SOL     MW 9332   5.891   3.615   3.515
 2334SOL     OW 9333   5.902   0.212   5.713
 2334SOL    HW1 9334   5.974   0.205   5.649
 2334SOL    HW2 9335   5.905   0.302   5.742
 2334SOL     MW 9336   5.911   0.222   5.709
 2335SOL     OW 9337   4.096   1.621   0.692
 2335SOL    HW1 9338   4.090   1.716   0.706
 2335SOL    HW2 9339   4.014   1.586   0.724
 2335SOL     MW 9340   4.086   1.628   0.697
 2336SOL     OW 9341   5.346   1.835   3.358
 2336SOL    HW1 9342   5.272   1.857   3.415
 2336SOL    HW2 9343   5.322   1.871   3.274
 2336SOL     MW 9344   5.334   1.842   3.355
 2337SOL     OW 9345   2.530   0.451   2.437
 2337SOL    HW1 9346   2.547   0.361   2.468
 2337SOL    HW2 9347   2.484   0.439   2.355
 2337SOL     MW 9348   2.527   0.438   2.431
 2338SOL     OW 9349   5.346   3.632   0.626
 2338SOL    HW1 9350   5.400   3.691   0.572
 2338SOL    HW2 9351   5.398   3.618   0.704
 2338SOL     MW 9352   5.359   3.638   0.629
 2339SOL     OW 9353   3.226   5.003   2.901
 2339SOL    HW1 9354   3.289   4.989   2.973
 2339SOL    HW2 9355   3.276   4.987   2.823
 2339SOL     MW 9356   3.239   4.999   2.901
 2340SOL     OW 9357   3.268   2.730   2.983
 2340SOL    HW1 9358   3.180   2.756   3.009
 2340SOL    HW2 9359   3.262   2.715   2.890
 2340SOL     MW 9360   3.257   2.731   2.976
 2341SOL     OW 9361   1.865   1.542   0.789
 2341SOL    HW1 9362   1.867   1.626   0.742
 2341SOL    HW2 9363   1.852   1.566   0.880
 2341SOL     MW 9364   1.863   1.555   0.794
 2342SOL     OW 9365   4.552   1.385   2.551
 2342SOL    HW1 9366   4.617   1.353   2.488
 2342SOL    HW2 9367   4.602   1.401   2.630
 2342SOL     MW 9368   4.566   1.383   2.553
 2343SOL     OW 9369   3.132   5.408   2.322
 2343SOL    HW1 9370   3.199   5.348   2.356
 2343SOL    HW2 9371   3.146   5.407   2.228
 2343SOL     MW 9372   3.142   5.400   2.315
 2344SOL     OW 9373   5.631   0.603   2.138
 2344SOL    HW1 9374   5.672   0.516   2.145
 2344SOL    HW2 9375   5.617   0.629   2.229
 2344SOL     MW 9376   5.634   0.595   2.150
 2345SOL     OW 9377   3.449   5.021   3.884
 2345SOL    HW1 9378   3.536   5.025   3.926
 2345SOL    HW2 9379   3.447   4.935   3.845
 2345SOL     MW 9380   3.459   5.012   3.884
 2346SOL     OW 9381   1.619   5.402   4.833
 2346SOL    HW1 9382   1.652   5.465   4.768
 2346SOL    HW2 9383   1.541   5.366   4.793
 2346SOL     MW 9384   1.613   5.406   4.821
 2347SOL     OW 9385   1.230   4.809   0.056
 2347SOL    HW1 9386   1.266   4.850  -0.024
 2347SOL    HW2 9387   1.244   4.716   0.043
 2347SOL     MW 9388   1.236   4.803   0.044
 2348SOL     OW 9389   5.430   2.962   1.002
 2348SOL    HW1 9390   5.355   2.913   1.036
 2348SOL    HW2 9391   5.441   2.930   0.913
 2348SOL     MW 9392   5.422   2.952   0.995
 2349SOL     OW 9393   4.014   2.175   0.356
 2349SOL    HW1 9394   4.067   2.133   0.288
 2349SOL    HW2 9395   3.973   2.249   0.313
 2349SOL     MW 9396   4.015   2.178   0.343
 2350SOL     OW 9397   2.466   1.095   1.305
 2350SOL    HW1 9398   2.383   1.094   1.353
 2350SOL    HW2 9399   2.507   1.013   1.329
 2350SOL     MW 9400   2.461   1.085   1.314
 2351SOL     OW 9401   5.176   2.986   1.832
 2351SOL    HW1 9402   5.237   3.043   1.881
 2351SOL    HW2 9403   5.214   2.982   1.745
 2351SOL     MW 9404   5.188   2.993   1.828
 2352SOL     OW 9405   4.061   5.292   4.335
 2352SOL    HW1 9406   4.061   5.381   4.373
 2352SOL    HW2 9407   3.969   5.271   4.327
 2352SOL     MW 9408   4.050   5.300   4.339
 2353SOL     OW 9409   4.965   4.399   4.384
 2353SOL    HW1 9410   4.928   4.384   4.296
 2353SOL    HW2 9411   4.912   4.470   4.419
 2353SOL     MW 9412   4.954   4.406   4.377
 2354SOL     OW 9413   3.567   2.704   4.275
 2354SOL    HW1 9414   3.565   2.629   4.214
 2354SOL    HW2 9415   3.623   2.676   4.345
 2354SOL     MW 9416   3.573   2.692   4.275
 2355SOL     OW 9417   2.342   0.074   3.798
 2355SOL    HW1 9418   2.320   0.017   3.723
 2355SOL    HW2 9419   2.272   0.058   3.860
 2355SOL     MW 9420   2.331   0.065   3.796
 2356SOL     OW 9421   3.331   2.140   0.523
 2356SOL    HW1 9422   3.345   2.123   0.617
 2356SOL    HW2 9423   3.295   2.059   0.490
 2356SOL     MW 9424   3.328   2.129   0.531
 2357SOL     OW 9425   3.499   5.122   2.359
 2357SOL    HW1 9426   3.455   5.052   2.408
 2357SOL    HW2 9427   3.447   5.132   2.281
 2357SOL     MW 9428   3.488   5.115   2.356
 2358SOL     OW 9429   2.949   3.652   1.842
 2358SOL    HW1 9430   2.898   3.601   1.777
 2358SOL    HW2 9431   3.037   3.616   1.835
 2358SOL     MW 9432   2.953   3.641   1.833
 2359SOL     OW 9433   4.127   2.820   5.564
 2359SOL    HW1 9434   4.206   2.875   5.562
 2359SOL    HW2 9435   4.120   2.793   5.655
 2359SOL     MW 9436   4.135   2.824   5.575
 2360SOL     OW 9437   5.874   4.452   0.575
 2360SOL    HW1 9438   5.948   4.395   0.600
 2360SOL    HW2 9439   5.825   4.464   0.656
 2360SOL     MW 9440   5.877   4.446   0.588
 2361SOL     OW 9441   2.976   6.070   2.443
 2361SOL    HW1 9442   3.070   6.066   2.422
 2361SOL    HW2 9443   2.938   5.996   2.397
 2361SOL     MW 9444   2.983   6.061   2.435
 2362SOL     OW 9445   4.101   5.045   1.246
 2362SOL    HW1 9446   4.024   5.018   1.296
 2362SOL    HW2 9447   4.172   4.995   1.284
 2362SOL     MW 9448   4.100   5.036   1.256
 2363SOL     OW 9449   3.659   0.113   1.589
 2363SOL    HW1 9450   3.623   0.086   1.504
 2363SOL    HW2 9451   3.597   0.178   1.622
 2363SOL     MW 9452   3.647   0.118   1.583
 2364SOL     OW 9453   1.275   0.026   1.383
 2364SOL    HW1 9454   1.207   0.093   1.375
 2364SOL    HW2 9455   1.353   0.069   1.350
 2364SOL     MW 9456   1.276   0.040   1.378
 2365SOL     OW 9457   2.333   1.252   2.148
 2365SOL    HW1 9458   2.321   1.329   2.204
 2365SOL    HW2 9459   2.340   1.287   2.060
 2365SOL     MW 9460   2.333   1.265   2.144
 2366SOL     OW 9461   3.305   5.493   1.234
 2366SOL    HW1 9462   3.291   5.571   1.288
 2366SOL    HW2 9463   3.390   5.460   1.262
 2366SOL     MW 9464   3.313   5.498   1.244
 2367SOL     OW 9465   0.974   5.369   0.577
 2367SOL    HW1 9466   0.889   5.345   0.616
 2367SOL    HW2 9467   0.958   5.368   0.484
 2367SOL     MW 9468   0.962   5.366   0.571
 2368SOL     OW 9469   0.056   0.773   0.056
 2368SOL    HW1 9470   0.042   0.718   0.134
 2368SOL    HW2 9471  -0.023   0.760   0.004
 2368SOL     MW 9472   0.045   0.765   0.059
 2369SOL     OW 9473   6.079   1.199   0.057
 2369SOL    HW1 9474   6.060   1.279   0.108
 2369SOL    HW2 9475   6.097   1.231  -0.030
 2369SOL     MW 9476   6.079   1.213   0.053
 2370SOL     OW 9477   2.973   3.667   2.985
 2370SOL    HW1 9478   2.964   3.574   2.962
 2370SOL    HW2 9479   2.996   3.666   3.077
 2370SOL     MW 9480   2.975   3.656   2.993
 2371SOL     OW 9481   0.401   0.515   4.110
 2371SOL    HW1 9482   0.384   0.607   4.088
 2371SOL    HW2 9483   0.315   0.474   4.103
 2371SOL     MW 9484   0.389   0.521   4.107
 2372SOL     OW 9485   1.498   2.039   5.788
 2372SOL    HW1 9486   1.416   1.994   5.765
 2372SOL    HW2 9487   1.489   2.125   5.749
 2372SOL     MW 9488   1.487   2.044   5.780
 2373SOL     OW 9489   3.735   0.313   1.246
 2373SOL    HW1 9490   3.793   0.295   1.321
 2373SOL    HW2 9491   3.763   0.398   1.214
 2373SOL     MW 9492   3.746   0.321   1.251
 2374SOL     OW 9493   1.550   5.647   1.813
 2374SOL    HW1 9494   1.559   5.689   1.727
 2374SOL    HW2 9495   1.488   5.700   1.860
 2374SOL     MW 9496   1.544   5.658   1.808
 2375SOL     OW 9497   4.106   3.155   2.400
 2375SOL    HW1 9498   4.071   3.214   2.468
 2375SOL    HW2 9499   4.199   3.174   2.400
 2375SOL     MW 9500   4.113   3.165   2.409
 2376SOL     OW 9501   1.629   4.238   2.373
 2376SOL    HW1 9502   1.591   4.257   2.460
 2376SOL    HW2 9503   1.618   4.319   2.325
 2376SOL     MW 9504   1.623   4.250   2.378
 2377SOL     OW 9505   5.944   3.244   4.490
 2377SOL    HW1 9506   5.986   3.318   4.444
 2377SOL    HW2 9507   5.851   3.264   4.487
 2377SOL     MW 9508   5.938   3.255   4.484
 2378SOL     OW 9509   0.853   2.708   1.680
 2378SOL    HW1 9510   0.883   2.717   1.588
 2378SOL    HW2 9511   0.789   2.778   1.690
 2378SOL     MW 9512   0.849   2.718   1.670
 2379SOL     OW 9513   6.010   4.944   4.206
 2379SOL    HW1 9514   6.066   4.876   4.244
 2379SOL    HW2 9515   6.029   4.939   4.113
 2379SOL     MW 9516   6.019   4.935   4.199
 2380SOL     OW 9517   0.373   3.260   1.009
 2380SOL    HW1 9518   0.361   3.204   0.931
 2380SOL    HW2 9519   0.335   3.209   1.079
 2380SOL     MW 9520   0.367   3.247   1.007
 2381SOL     OW 9521   5.377   3.063   0.136
 2381SOL    HW1 9522   5.337   3.141   0.176
 2381SOL    HW2 9523   5.360   3.074   0.043
 2381SOL     MW 9524   5.371   3.074   0.130
 2382SOL     OW 9525   1.393   0.952   4.804
 2382SOL    HW1 9526   1.319   0.912   4.850
 2382SOL    HW2 9527   1.428   0.882   4.751
 2382SOL     MW 9528   1.388   0.939   4.803
 2383SOL     OW 9529   2.964   5.362   0.172
 2383SOL    HW1 9530   2.982   5.307   0.250
 2383SOL    HW2 9531   2.995   5.310   0.099
 2383SOL     MW 9532   2.970   5.349   0.173
 2384SOL     OW 9533   3.644   5.831   3.845
 2384SOL    HW1 9534   3.714   5.768   3.866
 2384SOL    HW2 9535   3.690   5.913   3.835
 2384SOL     MW 9536   3.658   5.833   3.846
 2385SOL     OW 9537   1.575   0.376   0.147
 2385SOL    HW1 9538   1.526   0.425   0.213
 2385SOL    HW2 9539   1.626   0.314   0.196
 2385SOL     MW 9540   1.575   0.375   0.161
 2386SOL     OW 9541   5.165   3.116   4.871
 2386SOL    HW1 9542   5.242   3.166   4.903
 2386SOL    HW2 9543   5.168   3.128   4.777
 2386SOL     MW 9544   5.175   3.124   4.864
 2387SOL     OW 9545   5.023   2.886   5.494
 2387SOL    HW1 9546   5.047   2.802   5.535
 2387SOL    HW2 9547   4.996   2.861   5.406
 2387SOL     MW 9548   5.022   2.872   5.488
 2388SOL     OW 9549   2.746   5.802   0.029
 2388SOL    HW1 9550   2.654   5.784   0.053
 2388SOL    HW2 9551   2.782   5.842   0.107
 2388SOL     MW 9552   2.739   5.805   0.041
 2389SOL     OW 9553   2.369   5.677   1.849
 2389SOL    HW1 9554   2.448   5.721   1.881
 2389SOL    HW2 9555   2.308   5.747   1.832
 2389SOL     MW 9556   2.372   5.691   1.851
 2390SOL     OW 9557   4.335   1.452   5.152
 2390SOL    HW1 9558   4.333   1.544   5.179
 2390SOL    HW2 9559   4.346   1.456   5.057
 2390SOL     MW 9560   4.336   1.464   5.144
 2391SOL     OW 9561   4.352   3.184   2.070
 2391SOL    HW1 9562   4.333   3.258   2.128
 2391SOL    HW2 9563   4.447   3.176   2.074
 2391SOL     MW 9564   4.361   3.192   2.078
 2392SOL     OW 9565   5.537   5.725   0.362
 2392SOL    HW1 9566   5.571   5.708   0.451
 2392SOL    HW2 9567   5.559   5.815   0.346
 2392SOL     MW 9568   5.544   5.733   0.371
 2393SOL     OW 9569   3.443   4.561   2.535
 2393SOL    HW1 9570   3.427   4.652   2.563
 2393SOL    HW2 9571   3.359   4.518   2.547
 2393SOL     MW 9572   3.431   4.567   2.540
 2394SOL     OW 9573   5.294   3.100   2.147
 2394SOL    HW1 9574   5.349   3.175   2.120
 2394SOL    HW2 9575   5.248   3.075   2.068
 2394SOL     MW 9576   5.295   3.106   2.135
 2395SOL     OW 9577   3.820   2.833   3.701
 2395SOL    HW1 9578   3.885   2.903   3.692
 2395SOL    HW2 9579   3.786   2.843   3.789
 2395SOL     MW 9580   3.824   2.842   3.711
 2396SOL     OW 9581   5.171   5.484   5.140
 2396SOL    HW1 9582   5.248   5.523   5.184
 2396SOL    HW2 9583   5.127   5.436   5.209
 2396SOL     MW 9584   5.175   5.483   5.154
 2397SOL     OW 9585   4.845   0.135   6.044
 2397SOL    HW1 9586   4.927   0.140   5.994
 2397SOL    HW2 9587   4.869   0.160   6.132
 2397SOL     MW 9588   4.857   0.138   6.048
 2398SOL     OW 9589   4.280   3.012   2.094
 2398SOL    HW1 9590   4.289   2.939   2.157
 2398SOL    HW2 9591   4.329   2.983   2.018
 2398SOL     MW 9592   4.287   3.000   2.093
 2399SOL     OW 9593   2.830   4.108   3.437
 2399SOL    HW1 9594   2.914   4.069   3.463
 2399SOL    HW2 9595   2.820   4.083   3.346
 2399SOL     MW 9596   2.839   4.100   3.429
 2400SOL     OW 9597   3.974   1.478   0.534
 2400SOL    HW1 9598   3.919   1.553   0.559
 2400SOL    HW2 9599   3.923   1.402   0.557
 2400SOL     MW 9600   3.961   1.479   0.540
 2401SOL     OW 9601   4.760   0.726   2.494
 2401SOL    HW1 9602   4.807   0.806   2.518
 2401SOL    HW2 9603   4.827   0.658   2.496
 2401SOL     MW 9604   4.774   0.727   2.497
 2402SOL     OW 9605   3.722   2.860   6.032
 2402SOL    HW1 9606   3.649   2.801   6.011
 2402SOL    HW2 9607   3.782   2.851   5.959
 2402SOL     MW 9608   3.720   2.852   6.021
 2403SOL     OW 9609   1.124   3.953   2.391
 2403SOL    HW1 9610   1.141   3.903   2.310
 2403SOL    HW2 9611   1.049   3.910   2.429
 2403SOL     MW 9612   1.118   3.942   2.385
 2404SOL     OW 9613   5.900   5.144   2.205
 2404SOL    HW1 9614   5.989   5.179   2.194
 2404SOL    HW2 9615   5.914   5.052   2.226
 2404SOL     MW 9616   5.913   5.137   2.206
 2405SOL     OW 9617   2.962   1.475   4.235
 2405SOL    HW1 9618   2.883   1.490   4.288
 2405SOL    HW2 9619   3.015   1.552   4.251
 2405SOL     MW 9620   2.959   1.486   4.244
 2406SOL     OW 9621   3.800   5.376   5.587
 2406SOL    HW1 9622   3.886   5.405   5.619
 2406SOL    HW2 9623   3.739   5.442   5.617
 2406SOL     MW 9624   3.803   5.387   5.595
 2407SOL     OW 9625   1.824   4.762   4.268
 2407SOL    HW1 9626   1.803   4.840   4.215
 2407SOL    HW2 9627   1.757   4.761   4.335
 2407SOL     MW 9628   1.814   4.771   4.269
 2408SOL     OW 9629   4.997   1.726   4.798
 2408SOL    HW1 9630   5.074   1.714   4.741
 2408SOL    HW2 9631   5.034   1.751   4.882
 2408SOL     MW 9632   5.011   1.728   4.801
 2409SOL     OW 9633   2.535   5.751   1.590
 2409SOL    HW1 9634   2.494   5.825   1.544
 2409SOL    HW2 9635   2.524   5.771   1.682
 2409SOL     MW 9636   2.528   5.762   1.595
 2410SOL     OW 9637   5.766   0.822   1.872
 2410SOL    HW1 9638   5.709   0.865   1.935
 2410SOL    HW2 9639   5.815   0.893   1.832
 2410SOL     MW 9640   5.765   0.835   1.875
 2411SOL     OW 9641   5.382   4.711   3.012
 2411SOL    HW1 9642   5.312   4.682   2.953
 2411SOL    HW2 9643   5.452   4.739   2.954
 2411SOL     MW 9644   5.382   4.711   2.998
 2412SOL     OW 9645   4.560  -0.012   3.843
 2412SOL    HW1 9646   4.474   0.017   3.874
 2412SOL    HW2 9647   4.560   0.011   3.751
 2412SOL     MW 9648   4.549  -0.006   3.836
 2413SOL     OW 9649   2.054   5.872   1.549
 2413SOL    HW1 9650   2.013   5.787   1.535
 2413SOL    HW2 9651   2.096   5.864   1.634
 2413SOL     MW 9652   2.054   5.861   1.558
 2414SOL     OW 9653   4.981   4.798   0.782
 2414SOL    HW1 9654   4.965   4.721   0.726
 2414SOL    HW2 9655   4.966   4.765   0.870
 2414SOL     MW 9656   4.977   4.784   0.786
 2415SOL     OW 9657   1.887   3.327   5.672
 2415SOL    HW1 9658   1.854   3.404   5.625
 2415SOL    HW2 9659   1.944   3.284   5.609
 2415SOL     MW 9660   1.890   3.331   5.659
 2416SOL     OW 9661   2.890   5.869   3.283
 2416SOL    HW1 9662   2.894   5.858   3.187
 2416SOL    HW2 9663   2.815   5.818   3.309
 2416SOL     MW 9664   2.882   5.862   3.274
 2417SOL     OW 9665   4.222   2.172   0.816
 2417SOL    HW1 9666   4.168   2.230   0.870
 2417SOL    HW2 9667   4.238   2.221   0.736
 2417SOL     MW 9668   4.217   2.185   0.813
 2418SOL     OW 9669   5.848   4.257   6.073
 2418SOL    HW1 9670   5.777   4.210   6.118
 2418SOL    HW2 9671   5.926   4.209   6.096
 2418SOL     MW 9672   5.849   4.246   6.081
 2419SOL     OW 9673   2.477   3.072   0.907
 2419SOL    HW1 9674   2.428   3.139   0.955
 2419SOL    HW2 9675   2.507   3.012   0.974
 2419SOL     MW 9676   2.474   3.073   0.920
 2420SOL     OW 9677   1.592   4.554   4.202
 2420SOL    HW1 9678   1.600   4.548   4.107
 2420SOL    HW2 9679   1.591   4.464   4.232
 2420SOL     MW 9680   1.593   4.543   4.194
 2421SOL     OW 9681   0.237   0.707   5.907
 2421SOL    HW1 9682   0.162   0.663   5.866
 2421SOL    HW2 9683   0.223   0.694   6.000
 2421SOL     MW 9684   0.226   0.700   5.913
 2422SOL     OW 9685   4.511   4.737   3.952
 2422SOL    HW1 9686   4.546   4.800   4.016
 2422SOL    HW2 9687   4.515   4.653   3.997
 2422SOL     MW 9688   4.516   4.735   3.966
 2423SOL     OW 9689   2.016   1.336   0.078
 2423SOL    HW1 9690   2.101   1.307   0.113
 2423SOL    HW2 9691   2.035   1.360  -0.012
 2423SOL     MW 9692   2.029   1.335   0.072
 2424SOL     OW 9693   4.720   2.192   5.987
 2424SOL    HW1 9694   4.661   2.267   6.001
 2424SOL    HW2 9695   4.803   2.222   6.021
 2424SOL     MW 9696   4.723   2.205   5.993
 2425SOL     OW 9697   5.501   2.697   2.757
 2425SOL    HW1 9698   5.590   2.698   2.794
 2425SOL    HW2 9699   5.480   2.788   2.744
 2425SOL     MW 9700   5.510   2.708   2.760
 2426SOL     OW 9701   2.033   2.988   2.034
 2426SOL    HW1 9702   2.118   3.011   1.997
 2426SOL    HW2 9703   2.050   2.974   2.127
 2426SOL     MW 9704   2.045   2.989   2.041
 2427SOL     OW 9705   3.173   1.755   0.233
 2427SOL    HW1 9706   3.256   1.777   0.190
 2427SOL    HW2 9707   3.156   1.665   0.205
 2427SOL     MW 9708   3.181   1.747   0.225
 2428SOL     OW 9709   2.723   3.589   0.484
 2428SOL    HW1 9710   2.646   3.640   0.457
 2428SOL    HW2 9711   2.764   3.642   0.551
 2428SOL     MW 9712   2.718   3.601   0.489
 2429SOL     OW 9713   1.380   0.926   0.372
 2429SOL    HW1 9714   1.378   0.836   0.406
 2429SOL    HW2 9715   1.472   0.949   0.372
 2429SOL     MW 9716   1.390   0.918   0.376
 2430SOL     OW 9717   5.025   5.207   3.338
 2430SOL    HW1 9718   5.009   5.233   3.429
 2430SOL    HW2 9719   5.081   5.131   3.345
 2430SOL     MW 9720   5.030   5.201   3.350
 2431SOL     OW 9721   1.179   2.473   0.968
 2431SOL    HW1 9722   1.201   2.508   1.055
 2431SOL    HW2 9723   1.135   2.391   0.986
 2431SOL     MW 9724   1.177   2.467   0.980
 2432SOL     OW 9725   0.467   6.044   2.814
 2432SOL    HW1 9726   0.494   6.105   2.884
 2432SOL    HW2 9727   0.534   5.976   2.816
 2432SOL     MW 9728   0.478   6.043   2.823
 2433SOL     OW 9729   0.448   5.958   4.967
 2433SOL    HW1 9730   0.364   5.998   4.944
 2433SOL    HW2 9731   0.454   5.969   5.062
 2433SOL     MW 9732   0.438   5.964   4.976
 2434SOL     OW 9733   0.541   4.503   3.111
 2434SOL    HW1 9734   0.623   4.463   3.080
 2434SOL    HW2 9735   0.485   4.505   3.035
 2434SOL     MW 9736   0.544   4.498   3.098
 2435SOL     OW 9737   0.574   3.000   3.530
 2435SOL    HW1 9738   0.525   2.951   3.596
 2435SOL    HW2 9739   0.508   3.027   3.467
 2435SOL     MW 9740   0.560   2.997   3.530
 2436SOL     OW 9741   3.060   2.618   5.297
 2436SOL    HW1 9742   3.117   2.673   5.242
 2436SOL    HW2 9743   2.992   2.588   5.237
 2436SOL     MW 9744   3.059   2.621   5.283
 2437SOL     OW 9745   5.618   1.296   2.028
 2437SOL    HW1 9746   5.685   1.299   1.960
 2437SOL    HW2 9747   5.656   1.242   2.096
 2437SOL     MW 9748   5.631   1.290   2.028
 2438SOL     OW 9749   4.351   4.445   3.526
 2438SOL    HW1 9750   4.264   4.484   3.510
 2438SOL    HW2 9751   4.349   4.422   3.618
 2438SOL     MW 9752   4.340   4.447   3.535
 2439SOL     OW 9753   5.763   5.295   0.398
 2439SOL    HW1 9754   5.786   5.378   0.441
 2439SOL    HW2 9755   5.846   5.248   0.394
 2439SOL     MW 9756   5.776   5.300   0.403
 2440SOL     OW 9757   3.849   3.682   1.774
 2440SOL    HW1 9758   3.764   3.685   1.729
 2440SOL    HW2 9759   3.867   3.589   1.784
 2440SOL     MW 9760   3.840   3.671   1.770
 2441SOL     OW 9761   4.708   2.458   5.612
 2441SOL    HW1 9762   4.761   2.453   5.531
 2441SOL    HW2 9763   4.745   2.389   5.667
 2441SOL     MW 9764   4.719   2.449   5.609
 2442SOL     OW 9765   2.353   4.267   5.999
 2442SOL    HW1 9766   2.362   4.217   6.081
 2442SOL    HW2 9767   2.272   4.235   5.961
 2442SOL     MW 9768   2.344   4.257   6.005
 2443SOL     OW 9769   0.096   2.725   3.976
 2443SOL    HW1 9770   0.040   2.646   3.977
 2443SOL    HW2 9771   0.035   2.797   3.984
 2443SOL     MW 9772   0.082   2.723   3.977
 2444SOL     OW 9773   4.974   6.003   3.733
 2444SOL    HW1 9774   5.026   5.921   3.736
 2444SOL    HW2 9775   4.896   5.983   3.782
 2444SOL     MW 9776   4.971   5.991   3.740
 2445SOL     OW 9777   0.774   5.696   5.743
 2445SOL    HW1 9778   0.813   5.625   5.691
 2445SOL    HW2 9779   0.774   5.662   5.832
 2445SOL     MW 9780   0.779   5.683   5.747
 2446SOL     OW 9781   5.872   5.177   0.831
 2446SOL    HW1 9782   5.932   5.241   0.791
 2446SOL    HW2 9783   5.788   5.195   0.791
 2446SOL     MW 9784   5.870   5.187   0.821
 2447SOL     OW 9785   0.404   2.735   0.256
 2447SOL    HW1 9786   0.342   2.676   0.211
 2447SOL    HW2 9787   0.356   2.765   0.332
 2447SOL     MW 9788   0.390   2.731   0.260
 2448SOL     OW 9789   5.533   5.428   5.228
 2448SOL    HW1 9790   5.554   5.416   5.321
 2448SOL    HW2 9791   5.439   5.417   5.224
 2448SOL     MW 9792   5.525   5.425   5.238
 2449SOL     OW 9793   5.031   1.558   3.776
 2449SOL    HW1 9794   5.102   1.610   3.737
 2449SOL    HW2 9795   5.046   1.565   3.869
 2449SOL     MW 9796   5.041   1.565   3.782
 2450SOL     OW 9797   0.341   5.069   6.057
 2450SOL    HW1 9798   0.263   5.082   6.111
 2450SOL    HW2 9799   0.385   4.994   6.096
 2450SOL     MW 9800   0.337   5.062   6.068
 2451SOL     OW 9801   5.137   3.008   0.109
 2451SOL    HW1 9802   5.075   3.063   0.060
 2451SOL    HW2 9803   5.089   2.984   0.188
 2451SOL     MW 9804   5.123   3.012   0.112
 2452SOL     OW 9805   2.723   5.893   4.304
 2452SOL    HW1 9806   2.652   5.829   4.308
 2452SOL    HW2 9807   2.772   5.869   4.226
 2452SOL     MW 9808   2.720   5.882   4.295
 2453SOL     OW 9809   5.827   1.818   3.761
 2453SOL    HW1 9810   5.904   1.759   3.764
 2453SOL    HW2 9811   5.843   1.873   3.686
 2453SOL     MW 9812   5.839   1.818   3.753
 2454SOL     OW 9813   0.115   1.395   1.065
 2454SOL    HW1 9814   0.039   1.448   1.092
 2454SOL    HW2 9815   0.110   1.317   1.120
 2454SOL     MW 9816   0.105   1.392   1.075
 2455SOL     OW 9817   3.776   2.895   0.386
 2455SOL    HW1 9818   3.866   2.896   0.420
 2455SOL    HW2 9819   3.781   2.943   0.304
 2455SOL     MW 9820   3.787   2.901   0.380
 2456SOL     OW 9821   4.547   4.095   0.454
 2456SOL    HW1 9822   4.592   4.010   0.467
 2456SOL    HW2 9823   4.587   4.131   0.376
 2456SOL     MW 9824   4.557   4.089   0.447
 2457SOL     OW 9825   1.827   3.339   3.055
 2457SOL    HW1 9826   1.806   3.258   3.103
 2457SOL    HW2 9827   1.825   3.407   3.120
 2457SOL     MW 9828   1.824   3.337   3.068
 2458SOL     OW 9829   2.134   2.661   2.338
 2458SOL    HW1 9830   2.201   2.617   2.285
 2458SOL    HW2 9831   2.059   2.669   2.279
 2458SOL     MW 9832   2.133   2.657   2.324
 2459SOL     OW 9833   0.921   2.766   2.624
 2459SOL    HW1 9834   0.894   2.767   2.532
 2459SOL    HW2 9835   0.874   2.693   2.662
 2459SOL     MW 9836   0.912   2.757   2.617
 2460SOL     OW 9837   1.886   6.059   1.634
 2460SOL    HW1 9838   1.879   6.144   1.589
 2460SOL    HW2 9839   1.944   6.075   1.706
 2460SOL     MW 9840   1.892   6.071   1.637
 2461SOL     OW 9841   3.112   1.752   5.764
 2461SOL    HW1 9842   3.086   1.821   5.702
 2461SOL    HW2 9843   3.156   1.800   5.833
 2461SOL     MW 9844   3.114   1.766   5.765
 2462SOL     OW 9845   0.404   5.170   4.796
 2462SOL    HW1 9846   0.360   5.151   4.879
 2462SOL    HW2 9847   0.493   5.140   4.809
 2462SOL     MW 9848   0.409   5.164   4.808
 2463SOL     OW 9849   3.150   4.191   5.994
 2463SOL    HW1 9850   3.108   4.104   5.988
 2463SOL    HW2 9851   3.125   4.234   5.914
 2463SOL     MW 9852   3.142   4.185   5.984
 2464SOL     OW 9853   5.991   2.006   6.050
 2464SOL    HW1 9854   6.006   2.072   5.981
 2464SOL    HW2 9855   5.951   2.055   6.120
 2464SOL     MW 9856   5.988   2.020   6.050
 2465SOL     OW 9857   2.702   5.634   1.871
 2465SOL    HW1 9858   2.731   5.550   1.907
 2465SOL    HW2 9859   2.692   5.618   1.778
 2465SOL     MW 9860   2.704   5.622   1.864
 2466SOL     OW 9861   0.188   0.928   4.361
 2466SOL    HW1 9862   0.129   0.867   4.315
 2466SOL    HW2 9863   0.191   0.894   4.450
 2466SOL     MW 9864   0.181   0.917   4.366
 2467SOL     OW 9865   3.082   0.047   1.301
 2467SOL    HW1 9866   3.145   0.107   1.260
 2467SOL    HW2 9867   3.107   0.046   1.393
 2467SOL     MW 9868   3.092   0.054   1.307
 2468SOL     OW 9869   4.976   3.287   1.453
 2468SOL    HW1 9870   4.973   3.358   1.388
 2468SOL    HW2 9871   4.936   3.324   1.531
 2468SOL     MW 9872   4.971   3.300   1.454
 2469SOL     OW 9873   3.324   3.177   2.687
 2469SOL    HW1 9874   3.247   3.149   2.737
 2469SOL    HW2 9875   3.397   3.153   2.743
 2469SOL     MW 9876   3.324   3.171   2.700
 2470SOL     OW 9877   0.565   2.037   3.027
 2470SOL    HW1 9878   0.533   2.082   3.106
 2470SOL    HW2 9879   0.517   2.077   2.956
 2470SOL     MW 9880   0.556   2.047   3.028
 2471SOL     OW 9881   0.673   0.560   2.285
 2471SOL    HW1 9882   0.615   0.494   2.325
 2471SOL    HW2 9883   0.664   0.544   2.191
 2471SOL     MW 9884   0.665   0.550   2.278
 2472SOL     OW 9885   0.045   0.609   2.203
 2472SOL    HW1 9886   0.017   0.544   2.137
 2472SOL    HW2 9887  -0.036   0.647   2.234
 2472SOL     MW 9888   0.032   0.605   2.199
 2473SOL     OW 9889   4.119   2.398   5.331
 2473SOL    HW1 9890   4.031   2.382   5.296
 2473SOL    HW2 9891   4.113   2.481   5.375
 2473SOL     MW 9892   4.108   2.406   5.332
 2474SOL     OW 9893   0.893   5.189   2.217
 2474SOL    HW1 9894   0.955   5.243   2.167
 2474SOL    HW2 9895   0.854   5.249   2.279
 2474SOL     MW 9896   0.896   5.203   2.218
 2475SOL     OW 9897   1.947   0.771   4.768
 2475SOL    HW1 9898   1.932   0.857   4.808
 2475SOL    HW2 9899   1.950   0.789   4.675
 2475SOL     MW 9900   1.945   0.784   4.762
 2476SOL     OW 9901   5.306   3.645   4.707
 2476SOL    HW1 9902   5.370   3.615   4.773
 2476SOL    HW2 9903   5.350   3.628   4.624
 2476SOL     MW 9904   5.319   3.639   4.705
 2477SOL     OW 9905   0.304   1.977   0.952
 2477SOL    HW1 9906   0.396   1.960   0.974
 2477SOL    HW2 9907   0.258   1.899   0.980
 2477SOL     MW 9908   0.310   1.966   0.958
 2478SOL     OW 9909   3.723   1.654   2.862
 2478SOL    HW1 9910   3.736   1.592   2.934
 2478SOL    HW2 9911   3.735   1.739   2.902
 2478SOL     MW 9912   3.726   1.656   2.875
 2479SOL     OW 9913   5.994   2.196   5.078
 2479SOL    HW1 9914   6.036   2.212   4.993
 2479SOL    HW2 9915   6.066   2.175   5.137
 2479SOL     MW 9916   6.007   2.196   5.075
 2480SOL     OW 9917   3.428   2.137   5.122
 2480SOL    HW1 9918   3.348   2.106   5.078
 2480SOL    HW2 9919   3.415   2.114   5.213
 2480SOL     MW 9920   3.417   2.131   5.127
 2481SOL     OW 9921   3.612   1.951   5.693
 2481SOL    HW1 9922   3.641   2.039   5.719
 2481SOL    HW2 9923   3.691   1.899   5.694
 2481SOL     MW 9924   3.625   1.956   5.696
 2482SOL     OW 9925   1.241   2.076   3.841
 2482SOL    HW1 9926   1.277   2.101   3.755
 2482SOL    HW2 9927   1.175   2.141   3.858
 2482SOL     MW 9928   1.238   2.087   3.832
 2483SOL     OW 9929   3.707   0.724   0.169
 2483SOL    HW1 9930   3.803   0.731   0.179
 2483SOL    HW2 9931   3.673   0.759   0.250
 2483SOL     MW 9932   3.715   0.729   0.180
 2484SOL     OW 9933   5.472   5.933   2.479
 2484SOL    HW1 9934   5.445   6.004   2.538
 2484SOL    HW2 9935   5.447   5.964   2.393
 2484SOL     MW 9936   5.466   5.945   2.476
 2485SOL     OW 9937   0.358   2.386   4.099
 2485SOL    HW1 9938   0.353   2.482   4.106
 2485SOL    HW2 9939   0.293   2.364   4.034
 2485SOL     MW 9940   0.350   2.395   4.092
 2486SOL     OW 9941   5.094   3.595   2.009
 2486SOL    HW1 9942   5.130   3.554   2.089
 2486SOL    HW2 9943   5.062   3.521   1.958
 2486SOL     MW 9944   5.095   3.581   2.013
 2487SOL     OW 9945   2.330   3.820   0.430
 2487SOL    HW1 9946   2.258   3.853   0.376
 2487SOL    HW2 9947   2.295   3.819   0.518
 2487SOL     MW 9948   2.317   3.824   0.433
 2488SOL     OW 9949   2.884   2.464   2.885
 2488SOL    HW1 9950   2.814   2.508   2.934
 2488SOL    HW2 9951   2.843   2.385   2.853
 2488SOL     MW 9952   2.870   2.460   2.887
 2489SOL     OW 9953   4.673   4.040   1.492
 2489SOL    HW1 9954   4.753   4.026   1.440
 2489SOL    HW2 9955   4.700   4.101   1.560
 2489SOL     MW 9956   4.686   4.046   1.494
 2490SOL     OW 9957   0.532   0.713   0.398
 2490SOL    HW1 9958   0.598   0.667   0.451
 2490SOL    HW2 9959   0.451   0.700   0.446
 2490SOL     MW 9960   0.531   0.706   0.411
 2491SOL     OW 9961   5.000   2.138   5.235
 2491SOL    HW1 9962   4.953   2.136   5.151
 2491SOL    HW2 9963   5.020   2.047   5.252
 2491SOL     MW 9964   4.997   2.127   5.226
 2492SOL     OW 9965   3.164   3.188   2.064
 2492SOL    HW1 9966   3.093   3.209   2.003
 2492SOL    HW2 9967   3.182   3.270   2.108
 2492SOL     MW 9968   3.158   3.200   2.062
 2493SOL     OW 9969   3.562   0.740   0.916
 2493SOL    HW1 9970   3.567   0.820   0.969
 2493SOL    HW2 9971   3.608   0.762   0.836
 2493SOL     MW 9972   3.568   0.753   0.913
 2494SOL     OW 9973   0.469   5.469   5.105
 2494SOL    HW1 9974   0.412   5.533   5.062
 2494SOL    HW2 9975   0.440   5.470   5.196
 2494SOL     MW 9976   0.459   5.477   5.111
 2495SOL     OW 9977   4.338   3.210   1.612
 2495SOL    HW1 9978   4.411   3.246   1.561
 2495SOL    HW2 9979   4.298   3.286   1.652
 2495SOL     MW 9980   4.342   3.223   1.610
 2496SOL     OW 9981   0.901   0.107   0.967
 2496SOL    HW1 9982   0.858   0.182   1.011
 2496SOL    HW2 9983   0.942   0.146   0.891
 2496SOL     MW 9984   0.901   0.121   0.964
 2497SOL     OW 9985   0.459   2.024   0.285
 2497SOL    HW1 9986   0.424   2.041   0.372
 2497SOL    HW2 9987   0.445   2.106   0.238
 2497SOL     MW 9988   0.453   2.036   0.290
 2498SOL     OW 9989   2.890   0.866   1.556
 2498SOL    HW1 9990   2.838   0.942   1.527
 2498SOL    HW2 9991   2.867   0.856   1.648
 2498SOL     MW 9992   2.881   0.874   1.563
 2499SOL     OW 9993   4.257   1.701   3.652
 2499SOL    HW1 9994   4.216   1.736   3.572
 2499SOL    HW2 9995   4.194   1.638   3.685
 2499SOL     MW 9996   4.244   1.698   3.646
 2500SOL     OW 9997   0.028   4.900   3.382
 2500SOL    HW1 9998   0.079   4.944   3.313
 2500SOL    HW2 9999   0.064   4.812   3.386
 2500SOL     MW10000   0.039   4.895   3.374
 2501SOL     OW10001   4.628   3.164   1.095
 2501SOL    HW110002   4.673   3.238   1.137
 2501SOL    HW210003   4.554   3.146   1.153
 2501SOL     MW10004   4.625   3.171   1.107
 2502SOL     OW10005   0.250   5.633   4.620
 2502SOL    HW110006   0.290   5.553   4.583
 2502SOL    HW210007   0.193   5.664   4.551
 2502SOL     MW10008   0.248   5.626   4.607
 2503SOL     OW10009   0.044   5.602   0.153
 2503SOL    HW110010   0.063   5.614   0.246
 2503SOL    HW210011   0.100   5.531   0.126
 2503SOL     MW10012   0.053   5.595   0.161
 2504SOL     OW10013   4.902   2.980   2.059
 2504SOL    HW110014   4.858   2.929   2.128
 2504SOL    HW210015   4.852   2.960   1.980
 2504SOL     MW10016   4.891   2.971   2.058
 2505SOL     OW10017   5.670   5.095   5.993
 2505SOL    HW110018   5.622   5.166   6.035
 2505SOL    HW210019   5.760   5.124   5.993
 2505SOL     MW10020   5.675   5.107   5.998
 2506SOL     OW10021   4.893   1.815   5.256
 2506SOL    HW110022   4.812   1.829   5.307
 2506SOL    HW210023   4.875   1.858   5.173
 2506SOL     MW10024   4.881   1.822   5.253
 2507SOL     OW10025   0.273   4.242   0.423
 2507SOL    HW110026   0.254   4.161   0.374
 2507SOL    HW210027   0.299   4.304   0.355
 2507SOL     MW10028   0.274   4.239   0.409
 2508SOL     OW10029   4.649   3.087   3.370
 2508SOL    HW110030   4.656   2.999   3.407
 2508SOL    HW210031   4.632   3.072   3.278
 2508SOL     MW10032   4.648   3.074   3.363
 2509SOL     OW10033   4.995   5.260   5.069
 2509SOL    HW110034   5.087   5.235   5.082
 2509SOL    HW210035   4.990   5.348   5.104
 2509SOL     MW10036   5.005   5.267   5.075
 2510SOL     OW10037   6.054   2.167   2.888
 2510SOL    HW110038   6.116   2.144   2.817
 2510SOL    HW210039   6.029   2.083   2.925
 2510SOL     MW10040   6.059   2.154   2.884
 2511SOL     OW10041   1.821   5.351   2.516
 2511SOL    HW110042   1.729   5.356   2.487
 2511SOL    HW210043   1.817   5.301   2.597
 2511SOL     MW10044   1.809   5.345   2.522
 2512SOL     OW10045   3.160   1.325   4.227
 2512SOL    HW110046   3.067   1.300   4.233
 2512SOL    HW210047   3.172   1.388   4.297
 2512SOL     MW10048   3.150   1.330   4.236
 2513SOL     OW10049   2.812   5.508   3.765
 2513SOL    HW110050   2.827   5.580   3.826
 2513SOL    HW210051   2.898   5.489   3.729
 2513SOL     MW10052   2.824   5.514   3.768
 2514SOL     OW10053   3.535   5.870   0.162
 2514SOL    HW110054   3.630   5.869   0.144
 2514SOL    HW210055   3.513   5.962   0.168
 2514SOL     MW10056   3.544   5.881   0.161
 2515SOL     OW10057   2.040   2.483   5.730
 2515SOL    HW110058   2.130   2.497   5.761
 2515SOL    HW210059   2.039   2.392   5.702
 2515SOL     MW10060   2.051   2.474   5.730
 2516SOL     OW10061   4.904   4.814   5.662
 2516SOL    HW110062   4.924   4.907   5.680
 2516SOL    HW210063   4.936   4.768   5.738
 2516SOL     MW10064   4.910   4.820   5.673
 2517SOL     OW10065   1.320   2.105   4.253
 2517SOL    HW110066   1.237   2.093   4.207
 2517SOL    HW210067   1.333   2.023   4.298
 2517SOL     MW10068   1.312   2.094   4.253
 2518SOL     OW10069   5.454   3.113   4.927
 2518SOL    HW110070   5.369   3.079   4.899
 2518SOL    HW210071   5.485   3.163   4.852
 2518SOL     MW10072   5.447   3.115   4.914
 2519SOL     OW10073   3.092   3.178   3.760
 2519SOL    HW110074   3.143   3.098   3.776
 2519SOL    HW210075   3.020   3.150   3.706
 2519SOL     MW10076   3.090   3.165   3.756
 2520SOL     OW10077   1.137   5.652   3.280
 2520SOL    HW110078   1.212   5.655   3.341
 2520SOL    HW210079   1.103   5.741   3.282
 2520SOL     MW10080   1.142   5.663   3.288
 2521SOL     OW10081   2.055   1.043   4.717
 2521SOL    HW110082   2.094   1.089   4.642
 2521SOL    HW210083   2.098   1.082   4.792
 2521SOL     MW10084   2.065   1.053   4.717
 2522SOL     OW10085   4.764   4.599   1.417
 2522SOL    HW110086   4.675   4.622   1.390
 2522SOL    HW210087   4.759   4.593   1.512
 2522SOL     MW10088   4.753   4.601   1.425
 2523SOL     OW10089   2.043   2.700   5.397
 2523SOL    HW110090   1.998   2.650   5.465
 2523SOL    HW210091   2.087   2.770   5.444
 2523SOL     MW10092   2.042   2.702   5.411
 2524SOL     OW10093   3.477   3.929   2.288
 2524SOL    HW110094   3.502   3.934   2.381
 2524SOL    HW210095   3.529   3.996   2.246
 2524SOL     MW10096   3.486   3.937   2.294
 2525SOL     OW10097   2.258   3.441   2.715
 2525SOL    HW110098   2.317   3.509   2.749
 2525SOL    HW210099   2.270   3.444   2.621
 2525SOL     MW10100   2.266   3.450   2.708
 2526SOL     OW10101   5.735   3.104   4.887
 2526SOL    HW110102   5.826   3.084   4.865
 2526SOL    HW210103   5.684   3.045   4.833
 2526SOL     MW10104   5.740   3.094   4.878
 2527SOL     OW10105   3.726   4.012   0.945
 2527SOL    HW110106   3.796   3.991   0.884
 2527SOL    HW210107   3.646   3.990   0.898
 2527SOL     MW10108   3.725   4.007   0.932
 2528SOL     OW10109   5.102   3.321   4.773
 2528SOL    HW110110   5.163   3.322   4.698
 2528SOL    HW210111   5.032   3.379   4.747
 2528SOL     MW10112   5.101   3.328   4.761
 2529SOL     OW10113   2.967   0.353   2.422
 2529SOL    HW110114   2.922   0.333   2.339
 2529SOL    HW210115   2.899   0.345   2.487
 2529SOL     MW10116   2.953   0.350   2.419
 2530SOL     OW10117   2.048   5.306   3.976
 2530SOL    HW110118   2.037   5.273   3.886
 2530SOL    HW210119   1.960   5.306   4.011
 2530SOL     MW10120   2.036   5.302   3.969
 2531SOL     OW10121   4.217   3.801   3.007
 2531SOL    HW110122   4.173   3.741   2.945
 2531SOL    HW210123   4.245   3.744   3.078
 2531SOL     MW10124   4.215   3.787   3.008
 2532SOL     OW10125   4.135   0.220   3.370
 2532SOL    HW110126   4.178   0.135   3.384
 2532SOL    HW210127   4.084   0.208   3.291
 2532SOL     MW10128   4.134   0.208   3.363
 2533SOL     OW10129   3.794   3.064   1.478
 2533SOL    HW110130   3.724   3.047   1.542
 2533SOL    HW210131   3.824   3.152   1.499
 2533SOL     MW10132   3.789   3.072   1.489
 2534SOL     OW10133   3.045   2.380   4.882
 2534SOL    HW110134   2.999   2.341   4.957
 2534SOL    HW210135   3.047   2.310   4.818
 2534SOL     MW10136   3.039   2.367   4.884
 2535SOL     OW10137   2.971   0.146   5.456
 2535SOL    HW110138   3.034   0.099   5.401
 2535SOL    HW210139   2.993   0.121   5.545
 2535SOL     MW10140   2.981   0.137   5.460
 2536SOL     OW10141   3.055   5.203   4.459
 2536SOL    HW110142   3.104   5.178   4.380
 2536SOL    HW210143   3.120   5.205   4.528
 2536SOL     MW10144   3.069   5.200   4.457
 2537SOL     OW10145   4.940   0.851   1.174
 2537SOL    HW110146   5.020   0.898   1.148
 2537SOL    HW210147   4.927   0.788   1.105
 2537SOL     MW10148   4.948   0.849   1.163
 2538SOL     OW10149   0.163   1.355   2.350
 2538SOL    HW110150   0.139   1.437   2.395
 2538SOL    HW210151   0.166   1.378   2.258
 2538SOL     MW10152   0.160   1.368   2.345
 2539SOL     OW10153   1.402   5.609   1.198
 2539SOL    HW110154   1.470   5.561   1.150
 2539SOL    HW210155   1.442   5.693   1.217
 2539SOL     MW10156   1.415   5.613   1.194
 2540SOL     OW10157   3.135   4.940   1.733
 2540SOL    HW110158   3.191   4.869   1.698
 2540SOL    HW210159   3.156   4.942   1.826
 2540SOL     MW10160   3.144   4.932   1.740
 2541SOL     OW10161   3.402   3.419   2.861
 2541SOL    HW110162   3.490   3.459   2.862
 2541SOL    HW210163   3.416   3.332   2.895
 2541SOL     MW10164   3.414   3.414   2.866
 2542SOL     OW10165   4.494   3.224   1.396
 2542SOL    HW110166   4.582   3.201   1.365
 2542SOL    HW210167   4.508   3.288   1.464
 2542SOL     MW10168   4.506   3.229   1.400
 2543SOL     OW10169   0.246   1.408   3.836
 2543SOL    HW110170   0.278   1.377   3.921
 2543SOL    HW210171   0.229   1.329   3.787
 2543SOL     MW10172   0.247   1.395   3.840
 2544SOL     OW10173   3.068   6.042   2.099
 2544SOL    HW110174   3.061   5.957   2.144
 2544SOL    HW210175   2.992   6.044   2.042
 2544SOL     MW10176   3.058   6.032   2.098
 2545SOL     OW10177   4.477   0.081   1.272
 2545SOL    HW110178   4.560   0.119   1.242
 2545SOL    HW210179   4.430   0.062   1.192
 2545SOL     MW10180   4.482   0.083   1.259
 2546SOL     OW10181   3.312   4.445   0.213
 2546SOL    HW110182   3.371   4.481   0.279
 2546SOL    HW210183   3.361   4.450   0.132
 2546SOL     MW10184   3.325   4.450   0.211
 2547SOL     OW10185   0.050   5.203   0.862
 2547SOL    HW110186   0.053   5.126   0.919
 2547SOL    HW210187   0.060   5.168   0.774
 2547SOL     MW10188   0.051   5.189   0.858
 2548SOL     OW10189   4.041   3.007   3.931
 2548SOL    HW110190   4.023   3.062   3.854
 2548SOL    HW210191   4.038   3.068   4.004
 2548SOL     MW10192   4.038   3.021   3.931
 2549SOL     OW10193   0.118   2.271   2.361
 2549SOL    HW110194   0.054   2.300   2.427
 2549SOL    HW210195   0.179   2.343   2.355
 2549SOL     MW10196   0.117   2.283   2.369
 2550SOL     OW10197   5.772   5.357   1.196
 2550SOL    HW110198   5.834   5.378   1.267
 2550SOL    HW210199   5.725   5.438   1.183
 2550SOL     MW10200   5.774   5.369   1.203
 2551SOL     OW10201   1.924   1.383   4.911
 2551SOL    HW110202   1.874   1.463   4.927
 2551SOL    HW210203   1.921   1.372   4.817
 2551SOL     MW10204   1.917   1.391   4.902
 2552SOL     OW10205   0.810   2.509   0.674
 2552SOL    HW110206   0.769   2.548   0.752
 2552SOL    HW210207   0.876   2.573   0.648
 2552SOL     MW10208   0.813   2.521   0.680
 2553SOL     OW10209   2.226   5.938   0.820
 2553SOL    HW110210   2.309   5.981   0.845
 2553SOL    HW210211   2.168   6.010   0.801
 2553SOL     MW10212   2.230   5.952   0.821
 2554SOL     OW10213   0.655   1.983   4.516
 2554SOL    HW110214   0.679   1.997   4.424
 2554SOL    HW210215   0.660   2.069   4.556
 2554SOL     MW10216   0.659   1.995   4.510
 2555SOL     OW10217   1.847   2.933   1.530
 2555SOL    HW110218   1.880   3.003   1.587
 2555SOL    HW210219   1.914   2.921   1.465
 2555SOL     MW10220   1.859   2.940   1.529
 2556SOL     OW10221   5.817   1.042   0.070
 2556SOL    HW110222   5.795   0.949   0.075
 2556SOL    HW210223   5.911   1.043   0.055
 2556SOL     MW10224   5.826   1.031   0.069
 2557SOL     OW10225   3.201   3.241   2.951
 2557SOL    HW110226   3.289   3.253   2.988
 2557SOL    HW210227   3.216   3.234   2.857
 2557SOL     MW10228   3.213   3.242   2.944
 2558SOL     OW10229   5.112   4.752   0.332
 2558SOL    HW110230   5.096   4.676   0.389
 2558SOL    HW210231   5.036   4.807   0.345
 2558SOL     MW10232   5.101   4.749   0.341
 2559SOL     OW10233   3.271   5.299   0.151
 2559SOL    HW110234   3.293   5.381   0.197
 2559SOL    HW210235   3.219   5.250   0.213
 2559SOL     MW10236   3.268   5.303   0.164
 2560SOL     OW10237   1.867   0.339   4.586
 2560SOL    HW110238   1.825   0.392   4.517
 2560SOL    HW210239   1.959   0.340   4.563
 2560SOL     MW10240   1.873   0.346   4.575
 2561SOL     OW10241   1.008   4.121   4.957
 2561SOL    HW110242   1.078   4.179   4.989
 2561SOL    HW210243   1.014   4.128   4.862
 2561SOL     MW10244   1.018   4.129   4.950
 2562SOL     OW10245   2.363   5.464   4.284
 2562SOL    HW110246   2.437   5.494   4.337
 2562SOL    HW210247   2.375   5.370   4.279
 2562SOL     MW10248   2.373   5.456   4.290
 2563SOL     OW10249   2.968   5.013   0.314
 2563SOL    HW110250   2.985   5.077   0.244
 2563SOL    HW210251   2.879   4.984   0.298
 2563SOL     MW10252   2.959   5.018   0.304
 2564SOL     OW10253   3.404   4.240   0.041
 2564SOL    HW110254   3.431   4.333   0.041
 2564SOL    HW210255   3.480   4.193   0.071
 2564SOL     MW10256   3.416   4.246   0.044
 2565SOL     OW10257   1.896   4.931   3.186
 2565SOL    HW110258   1.962   4.985   3.231
 2565SOL    HW210259   1.819   4.937   3.242
 2565SOL     MW10260   1.895   4.938   3.198
 2566SOL     OW10261   0.471   6.015   0.216
 2566SOL    HW110262   0.413   5.953   0.262
 2566SOL    HW210263   0.440   6.015   0.127
 2566SOL     MW10264   0.460   6.007   0.211
 2567SOL     OW10265   1.718   3.132   5.046
 2567SOL    HW110266   1.811   3.118   5.025
 2567SOL    HW210267   1.701   3.072   5.118
 2567SOL     MW10268   1.727   3.124   5.052
 2568SOL     OW10269   1.474   2.923   4.710
 2568SOL    HW110270   1.424   2.865   4.651
 2568SOL    HW210271   1.555   2.877   4.725
 2568SOL     MW10272   1.477   2.911   4.704
 2569SOL     OW10273   0.490   3.018   5.872
 2569SOL    HW110274   0.505   2.973   5.788
 2569SOL    HW210275   0.503   2.950   5.937
 2569SOL     MW10276   0.493   3.005   5.870
 2570SOL     OW10277   3.679   5.550   0.663
 2570SOL    HW110278   3.694   5.627   0.606
 2570SOL    HW210279   3.626   5.583   0.734
 2570SOL     MW10280   3.675   5.563   0.664
 2571SOL     OW10281   1.919   5.989   0.853
 2571SOL    HW110282   1.886   6.031   0.933
 2571SOL    HW210283   1.914   6.057   0.787
 2571SOL     MW10284   1.914   6.002   0.855
 2572SOL     OW10285   3.356   4.296   1.940
 2572SOL    HW110286   3.320   4.217   1.980
 2572SOL    HW210287   3.339   4.285   1.847
 2572SOL     MW10288   3.350   4.285   1.934
 2573SOL     OW10289   0.367   3.206   3.992
 2573SOL    HW110290   0.340   3.136   3.931
 2573SOL    HW210291   0.343   3.286   3.947
 2573SOL     MW10292   0.361   3.207   3.979
 2574SOL     OW10293   3.895   4.785   0.039
 2574SOL    HW110294   3.938   4.737   0.110
 2574SOL    HW210295   3.878   4.719  -0.027
 2574SOL     MW10296   3.898   4.771   0.040
 2575SOL     OW10297   2.215   1.982   5.231
 2575SOL    HW110298   2.153   2.051   5.254
 2575SOL    HW210299   2.161   1.906   5.211
 2575SOL     MW10300   2.201   1.981   5.231
 2576SOL     OW10301   4.377   2.123   1.743
 2576SOL    HW110302   4.435   2.056   1.782
 2576SOL    HW210303   4.387   2.110   1.650
 2576SOL     MW10304   4.385   2.113   1.737
 2577SOL     OW10305   2.158   1.457   3.548
 2577SOL    HW110306   2.118   1.526   3.494
 2577SOL    HW210307   2.166   1.383   3.489
 2577SOL     MW10308   2.154   1.457   3.534
 2578SOL     OW10309   5.466   3.061   5.566
 2578SOL    HW110310   5.529   3.004   5.611
 2578SOL    HW210311   5.487   3.051   5.474
 2578SOL     MW10312   5.476   3.053   5.561
 2579SOL     OW10313   5.818   0.642   3.436
 2579SOL    HW110314   5.823   0.717   3.376
 2579SOL    HW210315   5.755   0.670   3.502
 2579SOL     MW10316   5.811   0.654   3.437
 2580SOL     OW10317   4.975   4.388   0.060
 2580SOL    HW110318   5.030   4.393   0.140
 2580SOL    HW210319   4.895   4.432   0.084
 2580SOL     MW10320   4.973   4.393   0.073
 2581SOL     OW10321   2.141   1.898   3.774
 2581SOL    HW110322   2.212   1.843   3.808
 2581SOL    HW210323   2.180   1.946   3.702
 2581SOL     MW10324   2.154   1.897   3.769
 2582SOL     OW10325   5.033   5.778   1.014
 2582SOL    HW110326   4.998   5.798   1.102
 2582SOL    HW210327   5.085   5.854   0.992
 2582SOL     MW10328   5.035   5.789   1.022
 2583SOL     OW10329   4.065   5.020   5.209
 2583SOL    HW110330   4.154   4.995   5.235
 2583SOL    HW210331   4.063   5.009   5.115
 2583SOL     MW10332   4.075   5.015   5.201
 2584SOL     OW10333   5.112   0.171   5.867
 2584SOL    HW110334   5.159   0.095   5.900
 2584SOL    HW210335   5.127   0.168   5.773
 2584SOL     MW10336   5.119   0.162   5.860
 2585SOL     OW10337   4.519   4.146   6.015
 2585SOL    HW110338   4.576   4.223   6.014
 2585SOL    HW210339   4.573   4.077   6.050
 2585SOL     MW10340   4.532   4.147   6.019
 2586SOL     OW10341   1.899   3.080   0.081
 2586SOL    HW110342   1.872   3.135   0.155
 2586SOL    HW210343   1.818   3.063   0.034
 2586SOL     MW10344   1.886   3.084   0.084
 2587SOL     OW10345   1.270   0.719   5.539
 2587SOL    HW110346   1.365   0.734   5.547
 2587SOL    HW210347   1.263   0.659   5.465
 2587SOL     MW10348   1.281   0.713   5.531
 2588SOL     OW10349   1.109   4.846   5.835
 2588SOL    HW110350   1.194   4.816   5.868
 2588SOL    HW210351   1.072   4.895   5.908
 2588SOL     MW10352   1.115   4.848   5.848
 2589SOL     OW10353   4.458   2.475   4.982
 2589SOL    HW110354   4.362   2.476   4.986
 2589SOL    HW210355   4.485   2.484   5.073
 2589SOL     MW10356   4.450   2.476   4.994
 2590SOL     OW10357   4.735   5.530   0.288
 2590SOL    HW110358   4.669   5.468   0.322
 2590SOL    HW210359   4.724   5.526   0.194
 2590SOL     MW10360   4.726   5.522   0.281
 2591SOL     OW10361   3.773   5.907   2.562
 2591SOL    HW110362   3.695   5.935   2.610
 2591SOL    HW210363   3.745   5.900   2.472
 2591SOL     MW10364   3.760   5.910   2.557
 2592SOL     OW10365   0.930   3.897   0.829
 2592SOL    HW110366   1.020   3.863   0.822
 2592SOL    HW210367   0.902   3.872   0.916
 2592SOL     MW10368   0.938   3.890   0.838
 2593SOL     OW10369   0.617   4.806   1.905
 2593SOL    HW110370   0.536   4.755   1.908
 2593SOL    HW210371   0.660   4.787   1.987
 2593SOL     MW10372   0.612   4.798   1.915
 2594SOL     OW10373   2.646   1.934   1.029
 2594SOL    HW110374   2.646   1.986   1.110
 2594SOL    HW210375   2.735   1.901   1.023
 2594SOL     MW10376   2.657   1.936   1.038
 2595SOL     OW10377   6.044   1.300   3.785
 2595SOL    HW110378   6.012   1.246   3.712
 2595SOL    HW210379   6.011   1.387   3.765
 2595SOL     MW10380   6.036   1.304   3.774
 2596SOL     OW10381   1.581   5.180   5.804
 2596SOL    HW110382   1.573   5.262   5.754
 2596SOL    HW210383   1.508   5.181   5.864
 2596SOL     MW10384   1.571   5.190   5.805
 2597SOL     OW10385   0.109   0.637   0.347
 2597SOL    HW110386   0.016   0.615   0.357
 2597SOL    HW210387   0.126   0.698   0.418
 2597SOL     MW10388   0.099   0.642   0.356
 2598SOL     OW10389   5.234   4.621   4.615
 2598SOL    HW110390   5.281   4.565   4.677
 2598SOL    HW210391   5.144   4.615   4.643
 2598SOL     MW10392   5.229   4.613   4.626
 2599SOL     OW10393   0.215   0.176   1.377
 2599SOL    HW110394   0.151   0.118   1.334
 2599SOL    HW210395   0.164   0.220   1.444
 2599SOL     MW10396   0.201   0.174   1.380
 2600SOL     OW10397   1.539   3.055   4.600
 2600SOL    HW110398   1.549   3.118   4.672
 2600SOL    HW210399   1.539   3.109   4.521
 2600SOL     MW10400   1.540   3.069   4.599
 2601SOL     OW10401  -0.020   5.433   5.251
 2601SOL    HW110402   0.002   5.399   5.163
 2601SOL    HW210403   0.057   5.412   5.304
 2601SOL     MW10404  -0.008   5.426   5.246
 2602SOL     OW10405   3.379   3.454   0.077
 2602SOL    HW110406   3.375   3.368   0.121
 2602SOL    HW210407   3.371   3.434  -0.015
 2602SOL     MW10408   3.377   3.441   0.072
 2603SOL     OW10409   4.693   1.019   0.252
 2603SOL    HW110410   4.632   1.088   0.278
 2603SOL    HW210411   4.744   1.002   0.330
 2603SOL     MW10412   4.692   1.025   0.264
 2604SOL     OW10413   0.106   4.071   3.780
 2604SOL    HW110414   0.190   4.096   3.820
 2604SOL    HW210415   0.047   4.141   3.805
 2604SOL     MW10416   0.109   4.083   3.788
 2605SOL     OW10417   5.141   4.186   5.615
 2605SOL    HW110418   5.192   4.248   5.562
 2605SOL    HW210419   5.088   4.241   5.671
 2605SOL     MW10420   5.141   4.200   5.615
 2606SOL     OW10421   0.200   5.275   4.644
 2606SOL    HW110422   0.147   5.216   4.698
 2606SOL    HW210423   0.157   5.271   4.559
 2606SOL     MW10424   0.188   5.267   4.640
 2607SOL     OW10425   4.675   0.204   4.100
 2607SOL    HW110426   4.656   0.114   4.071
 2607SOL    HW210427   4.685   0.197   4.194
 2607SOL     MW10428   4.674   0.192   4.108
 2608SOL     OW10429   1.086   5.712   4.204
 2608SOL    HW110430   1.070   5.781   4.269
 2608SOL    HW210431   1.169   5.675   4.230
 2608SOL     MW10432   1.094   5.716   4.215
 2609SOL     OW10433   5.483   4.298   2.354
 2609SOL    HW110434   5.487   4.377   2.407
 2609SOL    HW210435   5.551   4.310   2.288
 2609SOL     MW10436   5.492   4.309   2.352
 2610SOL     OW10437   4.996   0.244   1.840
 2610SOL    HW110438   5.043   0.305   1.897
 2610SOL    HW210439   5.052   0.237   1.763
 2610SOL     MW10440   5.008   0.251   1.838
 2611SOL     OW10441   2.101   4.512   4.682
 2611SOL    HW110442   2.110   4.421   4.712
 2611SOL    HW210443   2.082   4.504   4.589
 2611SOL     MW10444   2.100   4.500   4.674
 2612SOL     OW10445   3.290   4.147   5.351
 2612SOL    HW110446   3.382   4.172   5.336
 2612SOL    HW210447   3.292   4.052   5.353
 2612SOL     MW10448   3.302   4.139   5.350
 2613SOL     OW10449   5.894   1.249   4.764
 2613SOL    HW110450   5.969   1.238   4.706
 2613SOL    HW210451   5.895   1.341   4.787
 2613SOL     MW10452   5.903   1.259   4.760
 2614SOL     OW10453   2.301   3.735   2.192
 2614SOL    HW110454   2.323   3.820   2.231
 2614SOL    HW210455   2.310   3.749   2.098
 2614SOL     MW10456   2.305   3.747   2.185
 2615SOL     OW10457   5.697   2.787   5.826
 2615SOL    HW110458   5.776   2.757   5.871
 2615SOL    HW210459   5.725   2.803   5.736
 2615SOL     MW10460   5.710   2.785   5.821
 2616SOL     OW10461   4.323   1.387   3.157
 2616SOL    HW110462   4.297   1.479   3.168
 2616SOL    HW210463   4.324   1.375   3.063
 2616SOL     MW10464   4.320   1.397   3.147
 2617SOL     OW10465   5.520   1.620   4.942
 2617SOL    HW110466   5.575   1.596   4.867
 2617SOL    HW210467   5.432   1.594   4.915
 2617SOL     MW10468   5.516   1.614   4.930
 2618SOL     OW10469   5.467   4.238   3.606
 2618SOL    HW110470   5.460   4.297   3.531
 2618SOL    HW210471   5.405   4.169   3.589
 2618SOL     MW10472   5.459   4.237   3.595
 2619SOL     OW10473   1.608   3.157   5.503
 2619SOL    HW110474   1.690   3.199   5.530
 2619SOL    HW210475   1.584   3.202   5.423
 2619SOL     MW10476   1.615   3.168   5.497
 2620SOL     OW10477   1.692   5.177   2.643
 2620SOL    HW110478   1.772   5.136   2.609
 2620SOL    HW210479   1.687   5.148   2.733
 2620SOL     MW10480   1.701   5.169   2.649
 2621SOL     OW10481   1.583   4.218   0.423
 2621SOL    HW110482   1.487   4.225   0.416
 2621SOL    HW210483   1.597   4.186   0.511
 2621SOL     MW10484   1.573   4.215   0.433
 2622SOL     OW10485   2.721   5.631   2.302
 2622SOL    HW110486   2.741   5.698   2.368
 2622SOL    HW210487   2.722   5.678   2.220
 2622SOL     MW10488   2.723   5.645   2.300
 2623SOL     OW10489   5.398   4.231   0.361
 2623SOL    HW110490   5.445   4.239   0.277
 2623SOL    HW210491   5.465   4.247   0.426
 2623SOL     MW10492   5.412   4.234   0.359
 2624SOL     OW10493   1.829   6.003   1.823
 2624SOL    HW110494   1.872   5.941   1.884
 2624SOL    HW210495   1.779   5.947   1.765
 2624SOL     MW10496   1.829   5.988   1.824
 2625SOL     OW10497   4.739   5.305   0.102
 2625SOL    HW110498   4.665   5.365   0.115
 2625SOL    HW210499   4.807   5.339   0.159
 2625SOL     MW10500   4.738   5.317   0.110
 2626SOL     OW10501   2.590   4.957   5.179
 2626SOL    HW110502   2.628   5.039   5.144
 2626SOL    HW210503   2.626   4.951   5.266
 2626SOL     MW10504   2.599   4.967   5.185
 2627SOL     OW10505   1.905   1.533   1.122
 2627SOL    HW110506   1.929   1.587   1.045
 2627SOL    HW210507   1.855   1.591   1.177
 2627SOL     MW10508   1.902   1.546   1.119
 2628SOL     OW10509   5.266   2.831   1.802
 2628SOL    HW110510   5.344   2.792   1.844
 2628SOL    HW210511   5.194   2.806   1.859
 2628SOL     MW10512   5.267   2.823   1.814
 2629SOL     OW10513   5.435   5.017   2.023
 2629SOL    HW110514   5.425   4.925   1.997
 2629SOL    HW210515   5.421   5.016   2.117
 2629SOL     MW10516   5.433   5.006   2.031
 2630SOL     OW10517   4.880   4.120   3.695
 2630SOL    HW110518   4.815   4.085   3.634
 2630SOL    HW210519   4.894   4.209   3.667
 2630SOL     MW10520   4.874   4.126   3.684
 2631SOL     OW10521   5.464   2.638   0.353
 2631SOL    HW110522   5.551   2.625   0.390
 2631SOL    HW210523   5.475   2.623   0.260
 2631SOL     MW10524   5.476   2.635   0.347
 2632SOL     OW10525   4.306   5.580   4.696
 2632SOL    HW110526   4.252   5.507   4.729
 2632SOL    HW210527   4.295   5.576   4.602
 2632SOL     MW10528   4.298   5.571   4.689
 2633SOL     OW10529   4.562   3.896   5.028
 2633SOL    HW110530   4.639   3.950   5.050
 2633SOL    HW210531   4.540   3.853   5.110
 2633SOL     MW10532   4.569   3.898   5.041
 2634SOL     OW10533   1.251   4.928   0.907
 2634SOL    HW110534   1.283   5.019   0.899
 2634SOL    HW210535   1.232   4.918   1.000
 2634SOL     MW10536   1.252   4.938   0.917
 2635SOL     OW10537   2.856   5.610   2.758
 2635SOL    HW110538   2.909   5.683   2.726
 2635SOL    HW210539   2.832   5.636   2.846
 2635SOL     MW10540   2.859   5.622   2.765
 2636SOL     OW10541   3.191   3.417   5.908
 2636SOL    HW110542   3.099   3.403   5.882
 2636SOL    HW210543   3.227   3.471   5.838
 2636SOL     MW10544   3.184   3.422   5.896
 2637SOL     OW10545   3.703   0.617   3.158
 2637SOL    HW110546   3.660   0.561   3.223
 2637SOL    HW210547   3.729   0.557   3.089
 2637SOL     MW10548   3.700   0.603   3.158
 2638SOL     OW10549   3.009   0.581   2.546
 2638SOL    HW110550   3.099   0.549   2.534
 2638SOL    HW210551   2.988   0.624   2.464
 2638SOL     MW10552   3.017   0.582   2.535
 2639SOL     OW10553   1.365   3.418   5.918
 2639SOL    HW110554   1.384   3.325   5.897
 2639SOL    HW210555   1.372   3.462   5.834
 2639SOL     MW10556   1.368   3.411   5.905
 2640SOL     OW10557   1.211   2.780   3.360
 2640SOL    HW110558   1.223   2.873   3.339
 2640SOL    HW210559   1.256   2.769   3.443
 2640SOL     MW10560   1.218   2.790   3.368
 2641SOL     OW10561   5.728   2.634   2.522
 2641SOL    HW110562   5.661   2.679   2.573
 2641SOL    HW210563   5.712   2.661   2.433
 2641SOL     MW10564   5.718   2.643   2.518
 2642SOL     OW10565   2.593   1.812   0.600
 2642SOL    HW110566   2.566   1.882   0.540
 2642SOL    HW210567   2.577   1.847   0.686
 2642SOL     MW10568   2.588   1.824   0.603
 2643SOL     OW10569   3.684   3.901   1.715
 2643SOL    HW110570   3.712   3.872   1.802
 2643SOL    HW210571   3.598   3.863   1.703
 2643SOL     MW10572   3.677   3.893   1.724
 2644SOL     OW10573   4.993   0.471   1.493
 2644SOL    HW110574   4.948   0.391   1.522
 2644SOL    HW210575   5.083   0.444   1.484
 2644SOL     MW10576   4.998   0.458   1.496
 2645SOL     OW10577   1.642   0.432   4.994
 2645SOL    HW110578   1.623   0.385   5.075
 2645SOL    HW210579   1.696   0.505   5.021
 2645SOL     MW10580   1.646   0.435   5.007
 2646SOL     OW10581   3.386   4.860   0.893
 2646SOL    HW110582   3.469   4.830   0.931
 2646SOL    HW210583   3.371   4.802   0.820
 2646SOL     MW10584   3.395   4.849   0.889
 2647SOL     OW10585   2.845   4.455   0.909
 2647SOL    HW110586   2.887   4.540   0.894
 2647SOL    HW210587   2.857   4.439   1.001
 2647SOL     MW10588   2.851   4.464   0.918
 2648SOL     OW10589   1.775   5.584   1.293
 2648SOL    HW110590   1.760   5.638   1.214
 2648SOL    HW210591   1.729   5.630   1.362
 2648SOL     MW10592   1.768   5.596   1.291
 2649SOL     OW10593   2.186   5.612   0.214
 2649SOL    HW110594   2.173   5.676   0.285
 2649SOL    HW210595   2.228   5.539   0.257
 2649SOL     MW10596   2.189   5.611   0.228
 2650SOL     OW10597   3.675   5.903   2.231
 2650SOL    HW110598   3.659   5.921   2.138
 2650SOL    HW210599   3.600   5.851   2.258
 2650SOL     MW10600   3.664   5.899   2.222
 2651SOL     OW10601   4.400   3.784   3.611
 2651SOL    HW110602   4.383   3.691   3.592
 2651SOL    HW210603   4.323   3.813   3.658
 2651SOL     MW10604   4.389   3.776   3.614
 2652SOL     OW10605   0.394   4.889   3.563
 2652SOL    HW110606   0.431   4.955   3.624
 2652SOL    HW210607   0.364   4.940   3.489
 2652SOL     MW10608   0.395   4.903   3.562
 2653SOL     OW10609   5.817   4.140   1.318
 2653SOL    HW110610   5.784   4.101   1.400
 2653SOL    HW210611   5.804   4.233   1.330
 2653SOL     MW10612   5.811   4.146   1.329
 2654SOL     OW10613   2.930   1.596   5.741
 2654SOL    HW110614   2.895   1.508   5.724
 2654SOL    HW210615   2.876   1.631   5.810
 2654SOL     MW10616   2.919   1.589   5.747
 2655SOL     OW10617   4.240   1.693   1.985
 2655SOL    HW110618   4.230   1.612   2.037
 2655SOL    HW210619   4.288   1.665   1.908
 2655SOL     MW10620   4.244   1.679   1.982
 2656SOL     OW10621   4.323   0.370   0.031
 2656SOL    HW110622   4.287   0.288  -0.005
 2656SOL    HW210623   4.318   0.357   0.125
 2656SOL     MW10624   4.318   0.358   0.038
 2657SOL     OW10625   3.858   5.253   1.145
 2657SOL    HW110626   3.813   5.169   1.159
 2657SOL    HW210627   3.832   5.278   1.057
 2657SOL     MW10628   3.849   5.246   1.136
 2658SOL     OW10629   3.477   4.302   5.758
 2658SOL    HW110630   3.525   4.367   5.810
 2658SOL    HW210631   3.542   4.236   5.738
 2658SOL     MW10632   3.490   4.302   5.762
 2659SOL     OW10633   3.052   4.223   3.482
 2659SOL    HW110634   3.079   4.173   3.560
 2659SOL    HW210635   3.058   4.314   3.509
 2659SOL     MW10636   3.056   4.228   3.495
 2660SOL     OW10637   5.000   1.946   4.712
 2660SOL    HW110638   4.964   2.022   4.663
 2660SOL    HW210639   4.924   1.911   4.757
 2660SOL     MW10640   4.986   1.951   4.711
 2661SOL     OW10641   2.095   0.320   4.337
 2661SOL    HW110642   2.143   0.267   4.402
 2661SOL    HW210643   2.128   0.290   4.253
 2661SOL     MW10644   2.105   0.310   4.335
 2662SOL     OW10645   2.648   0.453   3.703
 2662SOL    HW110646   2.581   0.491   3.646
 2662SOL    HW210647   2.613   0.464   3.791
 2662SOL     MW10648   2.636   0.459   3.707
 2663SOL     OW10649   1.468   3.907   5.750
 2663SOL    HW110650   1.384   3.868   5.776
 2663SOL    HW210651   1.490   3.965   5.822
 2663SOL     MW10652   1.460   3.909   5.762
 2664SOL     OW10653   2.829   0.488   5.860
 2664SOL    HW110654   2.910   0.539   5.866
 2664SOL    HW210655   2.799   0.503   5.771
 2664SOL     MW10656   2.836   0.496   5.850
 2665SOL     OW10657   2.553   2.889   2.416
 2665SOL    HW110658   2.477   2.873   2.472
 2665SOL    HW210659   2.517   2.928   2.338
 2665SOL     MW10660   2.539   2.892   2.414
 2666SOL     OW10661   4.409   3.390   0.828
 2666SOL    HW110662   4.432   3.321   0.764
 2666SOL    HW210663   4.409   3.470   0.777
 2666SOL     MW10664   4.412   3.391   0.814
 2667SOL     OW10665   2.055   1.868   1.289
 2667SOL    HW110666   2.089   1.952   1.255
 2667SOL    HW210667   2.131   1.811   1.292
 2667SOL     MW10668   2.068   1.872   1.285
 2668SOL     OW10669   0.341   0.169   2.432
 2668SOL    HW110670   0.332   0.123   2.516
 2668SOL    HW210671   0.251   0.184   2.404
 2668SOL     MW10672   0.329   0.165   2.439
 2669SOL     OW10673   3.625   2.407   5.202
 2669SOL    HW110674   3.627   2.310   5.205
 2669SOL    HW210675   3.698   2.434   5.256
 2669SOL     MW10676   3.634   2.398   5.209
 2670SOL     OW10677   1.259   1.852   0.458
 2670SOL    HW110678   1.296   1.862   0.370
 2670SOL    HW210679   1.254   1.758   0.470
 2670SOL     MW10680   1.263   1.842   0.449
 2671SOL     OW10681   2.889   2.186   2.499
 2671SOL    HW110682   2.847   2.270   2.479
 2671SOL    HW210683   2.909   2.192   2.592
 2671SOL     MW10684   2.886   2.197   2.508
 2672SOL     OW10685   4.789   1.803   1.062
 2672SOL    HW110686   4.835   1.751   1.130
 2672SOL    HW210687   4.768   1.739   0.995
 2672SOL     MW10688   4.792   1.789   1.063
 2673SOL     OW10689   6.034   2.409   1.352
 2673SOL    HW110690   6.043   2.504   1.337
 2673SOL    HW210691   6.022   2.401   1.446
 2673SOL     MW10692   6.033   2.420   1.361
 2674SOL     OW10693   2.811   5.438   5.220
 2674SOL    HW110694   2.718   5.457   5.238
 2674SOL    HW210695   2.853   5.444   5.305
 2674SOL     MW10696   2.804   5.441   5.233
 2675SOL     OW10697   5.388   1.143   2.923
 2675SOL    HW110698   5.356   1.092   2.999
 2675SOL    HW210699   5.364   1.233   2.944
 2675SOL     MW10700   5.381   1.148   2.935
 2676SOL     OW10701   1.595   1.387   1.387
 2676SOL    HW110702   1.614   1.481   1.378
 2676SOL    HW210703   1.664   1.354   1.441
 2676SOL     MW10704   1.605   1.395   1.392
 2677SOL     OW10705   4.173   1.374   6.048
 2677SOL    HW110706   4.078   1.381   6.057
 2677SOL    HW210707   4.187   1.283   6.025
 2677SOL     MW10708   4.163   1.364   6.046
 2678SOL     OW10709   3.000   3.316   0.820
 2678SOL    HW110710   2.929   3.334   0.882
 2678SOL    HW210711   2.973   3.235   0.777
 2678SOL     MW10712   2.988   3.308   0.823
 2679SOL     OW10713   2.493   0.018   1.394
 2679SOL    HW110714   2.406   0.057   1.400
 2679SOL    HW210715   2.486  -0.062   1.445
 2679SOL     MW10716   2.482   0.013   1.401
 2680SOL     OW10717   5.304   5.208   5.018
 2680SOL    HW110718   5.397   5.187   5.031
 2680SOL    HW210719   5.295   5.219   4.924
 2680SOL     MW10720   5.314   5.207   5.009
 2681SOL     OW10721   4.266   1.160   2.649
 2681SOL    HW110722   4.337   1.209   2.607
 2681SOL    HW210723   4.273   1.183   2.741
 2681SOL     MW10724   4.276   1.168   2.655
 2682SOL     OW10725   4.806   4.377   5.062
 2682SOL    HW110726   4.876   4.314   5.081
 2682SOL    HW210727   4.829   4.413   4.977
 2682SOL     MW10728   4.817   4.374   5.054
 2683SOL     OW10729   1.095   4.964   3.099
 2683SOL    HW110730   1.152   4.933   3.028
 2683SOL    HW210731   1.150   5.022   3.150
 2683SOL     MW10732   1.108   4.967   3.097
 2684SOL     OW10733   0.401   3.737   0.922
 2684SOL    HW110734   0.382   3.753   0.829
 2684SOL    HW210735   0.472   3.675   0.921
 2684SOL     MW10736   0.407   3.732   0.910
 2685SOL     OW10737   0.805   0.705   4.594
 2685SOL    HW110738   0.828   0.763   4.521
 2685SOL    HW210739   0.875   0.716   4.657
 2685SOL     MW10740   0.816   0.714   4.593
 2686SOL     OW10741   5.354   2.881   0.206
 2686SOL    HW110742   5.280   2.940   0.188
 2686SOL    HW210743   5.402   2.877   0.124
 2686SOL     MW10744   5.350   2.888   0.194
 2687SOL     OW10745   4.895   3.502   4.323
 2687SOL    HW110746   4.899   3.590   4.361
 2687SOL    HW210747   4.902   3.517   4.230
 2687SOL     MW10748   4.897   3.514   4.317
 2688SOL     OW10749   0.052   3.942   4.660
 2688SOL    HW110750   0.021   4.023   4.702
 2688SOL    HW210751   0.051   3.961   4.567
 2688SOL     MW10752   0.048   3.954   4.654
 2689SOL     OW10753   3.252   1.379   2.315
 2689SOL    HW110754   3.250   1.429   2.233
 2689SOL    HW210755   3.171   1.329   2.313
 2689SOL     MW10756   3.242   1.379   2.304
 2690SOL     OW10757   2.511   4.301   2.921
 2690SOL    HW110758   2.490   4.393   2.939
 2690SOL    HW210759   2.433   4.254   2.947
 2690SOL     MW10760   2.499   4.307   2.926
 2691SOL     OW10761   1.245   1.801   0.839
 2691SOL    HW110762   1.184   1.797   0.764
 2691SOL    HW210763   1.195   1.843   0.908
 2691SOL     MW10764   1.232   1.805   0.838
 2692SOL     OW10765   0.939   4.316   4.600
 2692SOL    HW110766   1.029   4.331   4.569
 2692SOL    HW210767   0.947   4.314   4.694
 2692SOL     MW10768   0.951   4.318   4.607
 2693SOL     OW10769   5.530   4.725   1.825
 2693SOL    HW110770   5.550   4.659   1.893
 2693SOL    HW210771   5.583   4.699   1.751
 2693SOL     MW10772   5.539   4.714   1.825
 2694SOL     OW10773   2.580   3.031   1.273
 2694SOL    HW110774   2.552   3.018   1.364
 2694SOL    HW210775   2.515   3.091   1.237
 2694SOL     MW10776   2.569   3.037   1.280
 2695SOL     OW10777   0.167   0.311   2.134
 2695SOL    HW110778   0.246   0.297   2.188
 2695SOL    HW210779   0.177   0.249   2.063
 2695SOL     MW10780   0.178   0.302   2.132
 2696SOL     OW10781   1.796   4.187   2.505
 2696SOL    HW110782   1.825   4.108   2.551
 2696SOL    HW210783   1.728   4.223   2.560
 2696SOL     MW10784   1.791   4.182   2.517
 2697SOL     OW10785   2.723   0.610   2.361
 2697SOL    HW110786   2.750   0.524   2.396
 2697SOL    HW210787   2.746   0.606   2.269
 2697SOL     MW10788   2.729   0.599   2.354
 2698SOL     OW10789   0.204   5.167   0.565
 2698SOL    HW110790   0.146   5.110   0.514
 2698SOL    HW210791   0.204   5.130   0.652
 2698SOL     MW10792   0.197   5.156   0.569
 2699SOL     OW10793   4.822   2.035   1.984
 2699SOL    HW110794   4.787   1.945   1.984
 2699SOL    HW210795   4.913   2.025   1.961
 2699SOL     MW10796   4.828   2.023   1.982
 2700SOL     OW10797   0.685   2.463   5.459
 2700SOL    HW110798   0.771   2.500   5.440
 2700SOL    HW210799   0.683   2.454   5.553
 2700SOL     MW10800   0.695   2.466   5.468
 2701SOL     OW10801   1.375   4.611   4.338
 2701SOL    HW110802   1.317   4.570   4.274
 2701SOL    HW210803   1.373   4.703   4.316
 2701SOL     MW10804   1.368   4.617   4.328
 2702SOL     OW10805   1.158   4.247   3.355
 2702SOL    HW110806   1.146   4.178   3.289
 2702SOL    HW210807   1.071   4.261   3.390
 2702SOL     MW10808   1.146   4.240   3.351
 2703SOL     OW10809   1.376   0.802   5.194
 2703SOL    HW110810   1.462   0.762   5.176
 2703SOL    HW210811   1.376   0.818   5.287
 2703SOL     MW10812   1.387   0.799   5.202
 2704SOL     OW10813   4.897   0.694   5.155
 2704SOL    HW110814   4.893   0.791   5.158
 2704SOL    HW210815   4.865   0.667   5.240
 2704SOL     MW10816   4.892   0.703   5.165
 2705SOL     OW10817   4.425   2.216   4.808
 2705SOL    HW110818   4.481   2.212   4.886
 2705SOL    HW210819   4.482   2.247   4.739
 2705SOL     MW10820   4.438   2.219   4.809
 2706SOL     OW10821   0.212   5.236   1.934
 2706SOL    HW110822   0.191   5.329   1.926
 2706SOL    HW210823   0.198   5.216   2.026
 2706SOL     MW10824   0.208   5.245   1.944
 2707SOL     OW10825   4.243   1.577   5.560
 2707SOL    HW110826   4.239   1.488   5.524
 2707SOL    HW210827   4.175   1.624   5.514
 2707SOL     MW10828   4.234   1.572   5.550
 2708SOL     OW10829   4.067   2.029   1.085
 2708SOL    HW110830   4.154   2.029   1.044
 2708SOL    HW210831   4.084   2.037   1.178
 2708SOL     MW10832   4.080   2.030   1.091
 2709SOL     OW10833   3.931   1.248   0.791
 2709SOL    HW110834   3.874   1.325   0.802
 2709SOL    HW210835   4.018   1.285   0.784
 2709SOL     MW10836   3.935   1.262   0.792
 2710SOL     OW10837   0.958   1.684   0.288
 2710SOL    HW110838   0.903   1.758   0.259
 2710SOL    HW210839   0.963   1.627   0.213
 2710SOL     MW10840   0.952   1.686   0.276
 2711SOL     OW10841   4.830   2.868   0.108
 2711SOL    HW110842   4.808   2.776   0.127
 2711SOL    HW210843   4.865   2.867   0.020
 2711SOL     MW10844   4.831   2.857   0.100
 2712SOL     OW10845   1.433   5.488   4.355
 2712SOL    HW110846   1.359   5.440   4.394
 2712SOL    HW210847   1.445   5.448   4.270
 2712SOL     MW10848   1.426   5.477   4.350
 2713SOL     OW10849   5.034   3.945   4.606
 2713SOL    HW110850   4.991   3.860   4.616
 2713SOL    HW210851   5.085   3.955   4.686
 2713SOL     MW10852   5.035   3.936   4.617
 2714SOL     OW10853   2.517   0.484   0.915
 2714SOL    HW110854   2.421   0.483   0.902
 2714SOL    HW210855   2.528   0.457   1.005
 2714SOL     MW10856   2.506   0.481   0.924
 2715SOL     OW10857   0.712   3.927   4.008
 2715SOL    HW110858   0.622   3.893   4.008
 2715SOL    HW210859   0.717   3.978   4.088
 2715SOL     MW10860   0.701   3.929   4.018
 2716SOL     OW10861   4.314   0.780   5.109
 2716SOL    HW110862   4.243   0.821   5.158
 2716SOL    HW210863   4.285   0.783   5.018
 2716SOL     MW10864   4.302   0.785   5.104
 2717SOL     OW10865   0.630   2.945   1.107
 2717SOL    HW110866   0.554   2.886   1.101
 2717SOL    HW210867   0.603   3.023   1.062
 2717SOL     MW10868   0.618   2.947   1.101
 2718SOL     OW10869   4.696   5.770   5.087
 2718SOL    HW110870   4.776   5.776   5.034
 2718SOL    HW210871   4.727   5.737   5.171
 2718SOL     MW10872   4.710   5.767   5.090
 2719SOL     OW10873   4.690   3.429   2.148
 2719SOL    HW110874   4.603   3.397   2.124
 2719SOL    HW210875   4.677   3.475   2.230
 2719SOL     MW10876   4.678   3.430   2.155
 2720SOL     OW10877   2.111   0.897   1.327
 2720SOL    HW110878   2.048   0.835   1.365
 2720SOL    HW210879   2.061   0.944   1.261
 2720SOL     MW10880   2.097   0.895   1.324
 2721SOL     OW10881   0.355   2.607   2.143
 2721SOL    HW110882   0.405   2.673   2.094
 2721SOL    HW210883   0.396   2.606   2.229
 2721SOL     MW10884   0.366   2.615   2.147
 2722SOL     OW10885   5.225   5.941   1.144
 2722SOL    HW110886   5.164   6.005   1.183
 2722SOL    HW210887   5.211   5.948   1.051
 2722SOL     MW10888   5.216   5.949   1.138
 2723SOL     OW10889   0.550   2.635   2.553
 2723SOL    HW110890   0.616   2.587   2.604
 2723SOL    HW210891   0.600   2.685   2.490
 2723SOL     MW10892   0.564   2.635   2.552
 2724SOL     OW10893   5.767   5.282   4.047
 2724SOL    HW110894   5.847   5.300   4.098
 2724SOL    HW210895   5.774   5.340   3.973
 2724SOL     MW10896   5.778   5.291   4.045
 2725SOL     OW10897   5.090   3.689   4.792
 2725SOL    HW110898   5.054   3.774   4.763
 2725SOL    HW210899   5.149   3.711   4.862
 2725SOL     MW10900   5.092   3.702   4.796
 2726SOL     OW10901   1.021   4.804   1.966
 2726SOL    HW110902   1.103   4.852   1.950
 2726SOL    HW210903   0.972   4.862   2.023
 2726SOL     MW10904   1.025   4.817   1.971
 2727SOL     OW10905   1.063   5.467   3.045
 2727SOL    HW110906   0.972   5.436   3.035
 2727SOL    HW210907   1.113   5.409   2.990
 2727SOL     MW10908   1.058   5.457   3.038
 2728SOL     OW10909   4.865   1.519   1.284
 2728SOL    HW110910   4.925   1.571   1.229
 2728SOL    HW210911   4.807   1.477   1.222
 2728SOL     MW10912   4.866   1.521   1.270
 2729SOL     OW10913   2.128   5.928   0.136
 2729SOL    HW110914   2.042   5.887   0.124
 2729SOL    HW210915   2.109   6.020   0.151
 2729SOL     MW10916   2.115   5.934   0.136
 2730SOL     OW10917   4.887   4.664   0.177
 2730SOL    HW110918   4.891   4.567   0.172
 2730SOL    HW210919   4.820   4.681   0.242
 2730SOL     MW10920   4.880   4.654   0.184
 2731SOL     OW10921   2.616   2.867   4.597
 2731SOL    HW110922   2.609   2.946   4.544
 2731SOL    HW210923   2.637   2.899   4.684
 2731SOL     MW10924   2.618   2.880   4.601
 2732SOL     OW10925   5.117   1.320   3.911
 2732SOL    HW110926   5.082   1.230   3.909
 2732SOL    HW210927   5.106   1.351   3.822
 2732SOL     MW10928   5.111   1.313   3.900
 2733SOL     OW10929   1.595   2.728   4.231
 2733SOL    HW110930   1.555   2.814   4.215
 2733SOL    HW210931   1.579   2.711   4.323
 2733SOL     MW10932   1.588   2.736   4.240
 2734SOL     OW10933   1.522   0.887   2.300
 2734SOL    HW110934   1.608   0.927   2.285
 2734SOL    HW210935   1.465   0.960   2.322
 2734SOL     MW10936   1.525   0.901   2.301
 2735SOL     OW10937   4.281   6.103   2.941
 2735SOL    HW110938   4.198   6.140   2.910
 2735SOL    HW210939   4.265   6.010   2.943
 2735SOL     MW10940   4.269   6.097   2.937
 2736SOL     OW10941   0.248   0.528   1.897
 2736SOL    HW110942   0.274   0.543   1.806
 2736SOL    HW210943   0.279   0.605   1.943
 2736SOL     MW10944   0.255   0.539   1.892
 2737SOL     OW10945   4.842   5.814   2.137
 2737SOL    HW110946   4.831   5.889   2.196
 2737SOL    HW210947   4.834   5.851   2.050
 2737SOL     MW10948   4.840   5.827   2.134
 2738SOL     OW10949   3.269   0.065   4.536
 2738SOL    HW110950   3.210  -0.002   4.501
 2738SOL    HW210951   3.223   0.102   4.610
 2738SOL     MW10952   3.257   0.061   4.540
 2739SOL     OW10953   1.878   0.101   5.018
 2739SOL    HW110954   1.818   0.100   5.094
 2739SOL    HW210955   1.825   0.135   4.947
 2739SOL     MW10956   1.864   0.105   5.019
 2740SOL     OW10957   2.672   3.014   0.004
 2740SOL    HW110958   2.589   2.989   0.044
 2740SOL    HW210959   2.662   3.106  -0.015
 2740SOL     MW10960   2.661   3.022   0.007
 2741SOL     OW10961   0.109   5.933   5.626
 2741SOL    HW110962   0.061   5.994   5.683
 2741SOL    HW210963   0.116   5.979   5.543
 2741SOL     MW10964   0.104   5.946   5.623
 2742SOL     OW10965   2.787   4.317   0.317
 2742SOL    HW110966   2.756   4.298   0.407
 2742SOL    HW210967   2.881   4.311   0.324
 2742SOL     MW10968   2.794   4.314   0.329
 2743SOL     OW10969   2.881   6.056   4.381
 2743SOL    HW110970   2.853   6.030   4.292
 2743SOL    HW210971   2.839   5.994   4.438
 2743SOL     MW10972   2.872   6.046   4.377
 2744SOL     OW10973   2.595   1.223   5.657
 2744SOL    HW110974   2.658   1.151   5.670
 2744SOL    HW210975   2.638   1.282   5.596
 2744SOL     MW10976   2.608   1.221   5.652
 2745SOL     OW10977   2.015   5.578   0.753
 2745SOL    HW110978   1.981   5.665   0.728
 2745SOL    HW210979   2.106   5.594   0.775
 2745SOL     MW10980   2.022   5.590   0.753
 2746SOL     OW10981   2.522   4.990   2.207
 2746SOL    HW110982   2.576   5.070   2.207
 2746SOL    HW210983   2.568   4.931   2.265
 2746SOL     MW10984   2.534   4.993   2.214
 2747SOL     OW10985   5.117   0.618   5.324
 2747SOL    HW110986   5.207   0.637   5.352
 2747SOL    HW210987   5.084   0.702   5.295
 2747SOL     MW10988   5.124   0.630   5.324
 2748SOL     OW10989   4.132   3.287   5.695
 2748SOL    HW110990   4.090   3.293   5.608
 2748SOL    HW210991   4.126   3.375   5.730
 2748SOL     MW10992   4.126   3.298   5.688
 2749SOL     OW10993   4.255   5.956   0.173
 2749SOL    HW110994   4.255   6.051   0.191
 2749SOL    HW210995   4.232   5.916   0.256
 2749SOL     MW10996   4.252   5.963   0.185
 2750SOL     OW10997   1.612   1.280   2.184
 2750SOL    HW110998   1.591   1.187   2.176
 2750SOL    HW210999   1.703   1.286   2.161
 2750SOL     MW11000   1.620   1.270   2.180
 2751SOL     OW11001   3.655   4.820   5.788
 2751SOL    HW111002   3.655   4.847   5.696
 2751SOL    HW211003   3.747   4.822   5.812
 2751SOL     MW11004   3.666   4.823   5.779
 2752SOL     OW11005   3.363   0.329   4.815
 2752SOL    HW111006   3.401   0.399   4.870
 2752SOL    HW211007   3.379   0.358   4.726
 2752SOL     MW11008   3.370   0.341   4.811
 2753SOL     OW11009   1.211   2.234   3.535
 2753SOL    HW111010   1.236   2.216   3.626
 2753SOL    HW211011   1.277   2.189   3.484
 2753SOL     MW11012   1.222   2.226   3.540
 2754SOL     OW11013   3.355   5.435   4.780
 2754SOL    HW111014   3.362   5.531   4.776
 2754SOL    HW211015   3.444   5.405   4.777
 2754SOL     MW11016   3.366   5.444   4.779
 2755SOL     OW11017   0.437   2.725   4.587
 2755SOL    HW111018   0.414   2.809   4.546
 2755SOL    HW211019   0.373   2.664   4.550
 2755SOL     MW11020   0.426   2.728   4.577
 2756SOL     OW11021   5.178   3.610   0.790
 2756SOL    HW111022   5.104   3.549   0.788
 2756SOL    HW211023   5.207   3.610   0.880
 2756SOL     MW11024   5.173   3.602   0.800
 2757SOL     OW11025   1.584   4.843   4.779
 2757SOL    HW111026   1.503   4.858   4.730
 2757SOL    HW211027   1.559   4.853   4.870
 2757SOL     MW11028   1.571   4.846   4.784
 2758SOL     OW11029   3.834   2.190   3.512
 2758SOL    HW111030   3.740   2.170   3.522
 2758SOL    HW211031   3.864   2.206   3.601
 2758SOL     MW11032   3.826   2.189   3.524
 2759SOL     OW11033   5.157   4.028   0.523
 2759SOL    HW111034   5.179   4.053   0.432
 2759SOL    HW211035   5.199   4.094   0.576
 2759SOL     MW11036   5.164   4.039   0.518
 2760SOL     OW11037   5.591   0.647   0.586
 2760SOL    HW111038   5.612   0.557   0.562
 2760SOL    HW211039   5.511   0.666   0.540
 2760SOL     MW11040   5.584   0.638   0.578
 2761SOL     OW11041   4.109   5.469   1.919
 2761SOL    HW111042   4.178   5.500   1.980
 2761SOL    HW211043   4.114   5.529   1.846
 2761SOL     MW11044   4.118   5.480   1.918
 2762SOL     OW11045   4.000   3.706   4.699
 2762SOL    HW111046   3.971   3.757   4.775
 2762SOL    HW211047   3.949   3.742   4.627
 2762SOL     MW11048   3.990   3.717   4.699
 2763SOL     OW11049   0.628   4.221   2.702
 2763SOL    HW111050   0.624   4.241   2.797
 2763SOL    HW211051   0.666   4.135   2.698
 2763SOL     MW11052   0.632   4.213   2.713
 2764SOL     OW11053   4.610   1.624   2.035
 2764SOL    HW111054   4.585   1.709   1.999
 2764SOL    HW211055   4.574   1.623   2.122
 2764SOL     MW11056   4.603   1.634   2.041
 2765SOL     OW11057   0.845   1.078   0.801
 2765SOL    HW111058   0.803   1.034   0.727
 2765SOL    HW211059   0.877   1.008   0.856
 2765SOL     MW11060   0.844   1.065   0.799
 2766SOL     OW11061   0.249   0.392   0.288
 2766SOL    HW111062   0.263   0.305   0.328
 2766SOL    HW211063   0.233   0.373   0.197
 2766SOL     MW11064   0.249   0.379   0.282
 2767SOL     OW11065   1.483   5.069   0.483
 2767SOL    HW111066   1.521   4.984   0.504
 2767SOL    HW211067   1.418   5.050   0.416
 2767SOL     MW11068   1.480   5.056   0.478
 2768SOL     OW11069   0.709   1.373   2.710
 2768SOL    HW111070   0.794   1.347   2.673
 2768SOL    HW211071   0.723   1.371   2.804
 2768SOL     MW11072   0.721   1.370   2.717
 2769SOL     OW11073   5.978   1.120   5.656
 2769SOL    HW111074   5.915   1.171   5.708
 2769SOL    HW211075   6.030   1.185   5.611
 2769SOL     MW11076   5.977   1.134   5.657
 2770SOL     OW11077   3.862   4.877   2.300
 2770SOL    HW111078   3.863   4.791   2.257
 2770SOL    HW211079   3.901   4.861   2.385
 2770SOL     MW11080   3.867   4.865   2.304
 2771SOL     OW11081   2.116   4.964   3.364
 2771SOL    HW111082   2.161   4.935   3.444
 2771SOL    HW211083   2.062   4.890   3.341
 2771SOL     MW11084   2.115   4.952   3.371
 2772SOL     OW11085   3.915   5.280   2.547
 2772SOL    HW111086   3.864   5.248   2.472
 2772SOL    HW211087   3.945   5.201   2.590
 2772SOL     MW11088   3.912   5.267   2.543
 2773SOL     OW11089   3.674   1.502   1.846
 2773SOL    HW111090   3.707   1.479   1.933
 2773SOL    HW211091   3.749   1.492   1.789
 2773SOL     MW11092   3.687   1.498   1.850
 2774SOL     OW11093   3.356   1.378   1.934
 2774SOL    HW111094   3.330   1.470   1.949
 2774SOL    HW211095   3.372   1.374   1.841
 2774SOL     MW11096   3.355   1.389   1.925
 2775SOL     OW11097   4.858   2.727   3.312
 2775SOL    HW111098   4.800   2.742   3.387
 2775SOL    HW211099   4.901   2.811   3.299
 2775SOL     MW11100   4.856   2.739   3.320
 2776SOL     OW11101   0.630   2.114   5.554
 2776SOL    HW111102   0.626   2.208   5.577
 2776SOL    HW211103   0.714   2.105   5.511
 2776SOL     MW11104   0.639   2.124   5.552
 2777SOL     OW11105   0.481   2.253   2.215
 2777SOL    HW111106   0.477   2.299   2.130
 2777SOL    HW211107   0.408   2.288   2.263
 2777SOL     MW11108   0.472   2.263   2.210
 2778SOL     OW11109   3.111   3.963   5.581
 2778SOL    HW111110   3.064   3.957   5.665
 2778SOL    HW211111   3.046   3.994   5.520
 2778SOL     MW11112   3.098   3.966   5.584
 2779SOL     OW11113   1.134   4.868   3.871
 2779SOL    HW111114   1.154   4.939   3.932
 2779SOL    HW211115   1.050   4.893   3.834
 2779SOL     MW11116   1.126   4.880   3.874
 2780SOL     OW11117   2.993   4.206   4.475
 2780SOL    HW111118   3.019   4.295   4.448
 2780SOL    HW211119   2.972   4.215   4.567
 2780SOL     MW11120   2.994   4.218   4.483
 2781SOL     OW11121   4.760   3.427   2.860
 2781SOL    HW111122   4.695   3.498   2.858
 2781SOL    HW211123   4.821   3.453   2.928
 2781SOL     MW11124   4.760   3.439   2.868
 2782SOL     OW11125   5.137   0.072   4.945
 2782SOL    HW111126   5.179   0.002   4.893
 2782SOL    HW211127   5.180   0.067   5.030
 2782SOL     MW11128   5.147   0.063   4.949
 2783SOL     OW11129   1.080   3.850   4.474
 2783SOL    HW111130   1.120   3.769   4.441
 2783SOL    HW211131   0.993   3.824   4.503
 2783SOL     MW11132   1.074   3.837   4.474
 2784SOL     OW11133   3.568   4.631   3.373
 2784SOL    HW111134   3.584   4.725   3.387
 2784SOL    HW211135   3.642   4.602   3.322
 2784SOL     MW11136   3.578   4.639   3.369
 2785SOL     OW11137   0.054   2.592   0.995
 2785SOL    HW111138   0.056   2.646   1.074
 2785SOL    HW211139   0.008   2.513   1.021
 2785SOL     MW11140   0.049   2.589   1.007
 2786SOL     OW11141   4.364   4.391   0.602
 2786SOL    HW111142   4.407   4.330   0.543
 2786SOL    HW211143   4.431   4.455   0.623
 2786SOL     MW11144   4.377   4.391   0.597
 2787SOL     OW11145   3.648   2.628   2.457
 2787SOL    HW111146   3.561   2.593   2.478
 2787SOL    HW211147   3.648   2.636   2.363
 2787SOL     MW11148   3.638   2.625   2.448
 2788SOL     OW11149   6.022   4.704   4.477
 2788SOL    HW111150   6.095   4.757   4.444
 2788SOL    HW211151   5.983   4.757   4.545
 2788SOL     MW11152   6.026   4.717   4.481
 2789SOL     OW11153   1.862   5.710   2.034
 2789SOL    HW111154   1.814   5.768   2.094
 2789SOL    HW211155   1.895   5.641   2.089
 2789SOL     MW11156   1.860   5.709   2.047
 2790SOL     OW11157   4.393   4.149   4.299
 2790SOL    HW111158   4.372   4.242   4.286
 2790SOL    HW211159   4.434   4.145   4.384
 2790SOL     MW11160   4.395   4.160   4.307
 2791SOL     OW11161   4.156   4.412   0.462
 2791SOL    HW111162   4.085   4.347   0.451
 2791SOL    HW211163   4.235   4.363   0.441
 2791SOL     MW11164   4.156   4.398   0.458
 2792SOL     OW11165   1.992   0.188   0.359
 2792SOL    HW111166   1.909   0.224   0.392
 2792SOL    HW211167   2.058   0.250   0.391
 2792SOL     MW11168   1.990   0.200   0.367
 2793SOL     OW11169   2.492   0.395   1.869
 2793SOL    HW111170   2.432   0.320   1.881
 2793SOL    HW211171   2.510   0.395   1.776
 2793SOL     MW11172   2.486   0.386   1.860
 2794SOL     OW11173   4.955   5.062   3.441
 2794SOL    HW111174   4.920   5.008   3.512
 2794SOL    HW211175   4.901   5.040   3.366
 2794SOL     MW11176   4.944   5.053   3.440
 2795SOL     OW11177   3.255   1.170   1.017
 2795SOL    HW111178   3.295   1.144   0.933
 2795SOL    HW211179   3.223   1.258   1.002
 2795SOL     MW11180   3.256   1.177   1.005
 2796SOL     OW11181   1.703   0.801   1.787
 2796SOL    HW111182   1.741   0.713   1.778
 2796SOL    HW211183   1.776   0.859   1.766
 2796SOL     MW11184   1.717   0.797   1.783
 2797SOL     OW11185   4.883   5.713   4.620
 2797SOL    HW111186   4.930   5.654   4.560
 2797SOL    HW211187   4.818   5.755   4.565
 2797SOL     MW11188   4.881   5.711   4.606
 2798SOL     OW11189   0.642   5.540   5.028
 2798SOL    HW111190   0.611   5.580   4.946
 2798SOL    HW211191   0.733   5.521   5.011
 2798SOL     MW11192   0.649   5.542   5.016
 2799SOL     OW11193   4.806   2.733   2.312
 2799SOL    HW111194   4.822   2.718   2.405
 2799SOL    HW211195   4.837   2.653   2.270
 2799SOL     MW11196   4.812   2.722   2.318
 2800SOL     OW11197   5.840   2.292   0.695
 2800SOL    HW111198   5.934   2.284   0.675
 2800SOL    HW211199   5.797   2.273   0.612
 2800SOL     MW11200   5.847   2.289   0.682
 2801SOL     OW11201   5.284   4.576   3.447
 2801SOL    HW111202   5.286   4.576   3.350
 2801SOL    HW211203   5.306   4.665   3.471
 2801SOL     MW11204   5.287   4.587   3.438
 2802SOL     OW11205   4.646   3.637   4.863
 2802SOL    HW111206   4.680   3.726   4.849
 2802SOL    HW211207   4.610   3.639   4.951
 2802SOL     MW11208   4.646   3.648   4.872
 2803SOL     OW11209   0.634   6.087   2.161
 2803SOL    HW111210   0.706   6.116   2.105
 2803SOL    HW211211   0.673   6.080   2.247
 2803SOL     MW11212   0.647   6.090   2.164
 2804SOL     OW11213   2.217   0.296   2.692
 2804SOL    HW111214   2.232   0.226   2.757
 2804SOL    HW211215   2.282   0.362   2.714
 2804SOL     MW11216   2.227   0.295   2.702
 2805SOL     OW11217   3.734  -0.031   1.110
 2805SOL    HW111218   3.757   0.033   1.041
 2805SOL    HW211219   3.718   0.023   1.186
 2805SOL     MW11220   3.735  -0.016   1.110
 2806SOL     OW11221   3.553   3.685   3.642
 2806SOL    HW111222   3.598   3.611   3.600
 2806SOL    HW211223   3.566   3.672   3.735
 2806SOL     MW11224   3.560   3.675   3.648
 2807SOL     OW11225   1.698   3.850   1.763
 2807SOL    HW111226   1.617   3.898   1.786
 2807SOL    HW211227   1.728   3.893   1.684
 2807SOL     MW11228   1.692   3.861   1.756
 2808SOL     OW11229   0.839   1.809   5.642
 2808SOL    HW111230   0.868   1.877   5.580
 2808SOL    HW211231   0.796   1.745   5.588
 2808SOL     MW11232   0.838   1.810   5.628
 2809SOL     OW11233   4.560   5.169   2.913
 2809SOL    HW111234   4.555   5.246   2.970
 2809SOL    HW211235   4.574   5.205   2.826
 2809SOL     MW11236   4.561   5.183   2.909
 2810SOL     OW11237   2.464   1.055   1.515
 2810SOL    HW111238   2.429   0.978   1.469
 2810SOL    HW211239   2.513   1.018   1.587
 2810SOL     MW11240   2.466   1.041   1.518
 2811SOL     OW11241   2.591   1.250   2.746
 2811SOL    HW111242   2.655   1.223   2.812
 2811SOL    HW211243   2.623   1.334   2.715
 2811SOL     MW11244   2.603   1.256   2.750
 2812SOL     OW11245   0.973   1.473   5.899
 2812SOL    HW111246   1.003   1.394   5.945
 2812SOL    HW211247   0.978   1.450   5.807
 2812SOL     MW11248   0.977   1.461   5.894
 2813SOL     OW11249   1.097   3.188   3.745
 2813SOL    HW111250   1.018   3.206   3.797
 2813SOL    HW211251   1.075   3.218   3.658
 2813SOL     MW11252   1.085   3.194   3.741
 2814SOL     OW11253   3.350   0.900   3.469
 2814SOL    HW111254   3.360   0.982   3.518
 2814SOL    HW211255   3.415   0.906   3.400
 2814SOL     MW11256   3.359   0.910   3.466
 2815SOL     OW11257   4.172   0.189   2.545
 2815SOL    HW111258   4.088   0.197   2.498
 2815SOL    HW211259   4.149   0.144   2.626
 2815SOL     MW11260   4.159   0.185   2.549
 2816SOL     OW11261   2.523   5.103   1.184
 2816SOL    HW111262   2.485   5.160   1.117
 2816SOL    HW211263   2.573   5.162   1.239
 2816SOL     MW11264   2.524   5.117   1.183
 2817SOL     OW11265   3.476   0.253   1.356
 2817SOL    HW111266   3.550   0.299   1.316
 2817SOL    HW211267   3.476   0.283   1.446
 2817SOL     MW11268   3.485   0.262   1.362
 2818SOL     OW11269   2.839   0.548   3.164
 2818SOL    HW111270   2.751   0.566   3.201
 2818SOL    HW211271   2.833   0.583   3.075
 2818SOL     MW11272   2.827   0.555   3.158
 2819SOL     OW11273   0.683   5.211   1.243
 2819SOL    HW111274   0.665   5.218   1.337
 2819SOL    HW211275   0.662   5.121   1.221
 2819SOL     MW11276   0.679   5.201   1.252
 2820SOL     OW11277   2.284   1.079   2.039
 2820SOL    HW111278   2.246   1.000   2.079
 2820SOL    HW211279   2.345   1.045   1.975
 2820SOL     MW11280   2.287   1.065   2.037
 2821SOL     OW11281   5.221   3.146   1.750
 2821SOL    HW111282   5.167   3.123   1.673
 2821SOL    HW211283   5.305   3.107   1.732
 2821SOL     MW11284   5.224   3.139   1.738
 2822SOL     OW11285   2.303   2.540   5.828
 2822SOL    HW111286   2.307   2.625   5.783
 2822SOL    HW211287   2.305   2.563   5.920
 2822SOL     MW11288   2.304   2.553   5.833
 2823SOL     OW11289   4.500   0.625   0.937
 2823SOL    HW111290   4.427   0.661   0.885
 2823SOL    HW211291   4.463   0.614   1.024
 2823SOL     MW11292   4.487   0.628   0.941
 2824SOL     OW11293   5.636   4.892   4.056
 2824SOL    HW111294   5.576   4.845   3.998
 2824SOL    HW211295   5.583   4.917   4.130
 2824SOL     MW11296   5.623   4.889   4.058
 2825SOL     OW11297   0.444   1.032   5.055
 2825SOL    HW111298   0.461   1.083   4.975
 2825SOL    HW211299   0.520   0.975   5.063
 2825SOL     MW11300   0.455   1.032   5.046
 2826SOL     OW11301   3.481   1.033   2.300
 2826SOL    HW111302   3.538   1.083   2.241
 2826SOL    HW211303   3.510   1.057   2.387
 2826SOL     MW11304   3.491   1.042   2.303
 2827SOL     OW11305   5.970   2.994   4.935
 2827SOL    HW111306   5.885   2.949   4.932
 2827SOL    HW211307   6.027   2.939   4.882
 2827SOL     MW11308   5.966   2.982   4.928
 2828SOL     OW11309   4.487   1.697   5.931
 2828SOL    HW111310   4.433   1.709   5.852
 2828SOL    HW211311   4.455   1.762   5.992
 2828SOL     MW11312   4.476   1.706   5.929
 2829SOL     OW11313   2.238   1.276   2.989
 2829SOL    HW111314   2.274   1.234   3.068
 2829SOL    HW211315   2.240   1.208   2.923
 2829SOL     MW11316   2.243   1.263   2.991
 2830SOL     OW11317   0.983   2.117   1.004
 2830SOL    HW111318   1.048   2.171   0.958
 2830SOL    HW211319   0.940   2.068   0.935
 2830SOL     MW11320   0.986   2.118   0.990
 2831SOL     OW11321   3.366   1.278   2.916
 2831SOL    HW111322   3.352   1.274   3.011
 2831SOL    HW211323   3.364   1.371   2.896
 2831SOL     MW11324   3.364   1.289   2.925
 2832SOL     OW11325   0.837   3.829   1.349
 2832SOL    HW111326   0.919   3.779   1.360
 2832SOL    HW211327   0.835   3.850   1.256
 2832SOL     MW11328   0.847   3.825   1.339
 2833SOL     OW11329   2.719   4.948   5.975
 2833SOL    HW111330   2.766   4.964   6.057
 2833SOL    HW211331   2.627   4.955   5.998
 2833SOL     MW11332   2.714   4.950   5.988
 2834SOL     OW11333   5.907   3.697   0.183
 2834SOL    HW111334   5.820   3.692   0.224
 2834SOL    HW211335   5.888   3.701   0.090
 2834SOL     MW11336   5.894   3.697   0.177
 2835SOL     OW11337   5.354   3.812   6.010
 2835SOL    HW111338   5.436   3.767   6.033
 2835SOL    HW211339   5.353   3.814   5.915
 2835SOL     MW11340   5.364   3.807   6.002
 2836SOL     OW11341   4.383   3.725   0.377
 2836SOL    HW111342   4.293   3.723   0.341
 2836SOL    HW211343   4.421   3.644   0.346
 2836SOL     MW11344   4.376   3.715   0.369
 2837SOL     OW11345   5.767   3.029   0.666
 2837SOL    HW111346   5.694   2.967   0.674
 2837SOL    HW211347   5.777   3.041   0.573
 2837SOL     MW11348   5.759   3.023   0.656
 2838SOL     OW11349   4.131   4.796   4.044
 2838SOL    HW111350   4.041   4.775   4.071
 2838SOL    HW211351   4.159   4.719   3.997
 2838SOL     MW11352   4.123   4.784   4.042
 2839SOL     OW11353   1.744   5.457   1.764
 2839SOL    HW111354   1.774   5.511   1.837
 2839SOL    HW211355   1.762   5.509   1.687
 2839SOL     MW11356   1.750   5.469   1.764
 2840SOL     OW11357   6.023   4.282   1.666
 2840SOL    HW111358   6.031   4.292   1.571
 2840SOL    HW211359   6.048   4.192   1.682
 2840SOL     MW11360   6.027   4.272   1.657
 2841SOL     OW11361   1.447   5.245   2.774
 2841SOL    HW111362   1.453   5.161   2.727
 2841SOL    HW211363   1.412   5.221   2.859
 2841SOL     MW11364   1.443   5.232   2.778
 2842SOL     OW11365   3.988   0.988   5.760
 2842SOL    HW111366   4.039   0.941   5.692
 2842SOL    HW211367   3.902   0.947   5.757
 2842SOL     MW11368   3.984   0.977   5.751
 2843SOL     OW11369   2.246   5.022   3.916
 2843SOL    HW111370   2.263   5.095   3.855
 2843SOL    HW211371   2.230   4.948   3.860
 2843SOL     MW11372   2.246   5.022   3.902
 2844SOL     OW11373   1.500   0.947   2.633
 2844SOL    HW111374   1.594   0.935   2.616
 2844SOL    HW211375   1.457   0.885   2.576
 2844SOL     MW11376   1.506   0.938   2.624
 2845SOL     OW11377   2.257   0.336   4.856
 2845SOL    HW111378   2.344   0.344   4.895
 2845SOL    HW211379   2.221   0.424   4.862
 2845SOL     MW11380   2.263   0.347   4.861
 2846SOL     OW11381   3.456   0.456   0.421
 2846SOL    HW111382   3.488   0.398   0.491
 2846SOL    HW211383   3.485   0.414   0.341
 2846SOL     MW11384   3.463   0.444   0.420
 2847SOL     OW11385   4.763   3.907   5.317
 2847SOL    HW111386   4.781   3.957   5.398
 2847SOL    HW211387   4.818   3.830   5.324
 2847SOL     MW11388   4.772   3.904   5.328
 2848SOL     OW11389   5.255   0.298   4.284
 2848SOL    HW111390   5.194   0.334   4.219
 2848SOL    HW211391   5.285   0.216   4.246
 2848SOL     MW11392   5.251   0.293   4.272
 2849SOL     OW11393   5.594   0.326   3.648
 2849SOL    HW111394   5.593   0.340   3.744
 2849SOL    HW211395   5.579   0.412   3.612
 2849SOL     MW11396   5.592   0.338   3.656
 2850SOL     OW11397   4.247   4.119   4.552
 2850SOL    HW111398   4.218   4.202   4.593
 2850SOL    HW211399   4.178   4.058   4.573
 2850SOL     MW11400   4.235   4.122   4.560
 2851SOL     OW11401   5.026   2.456   2.511
 2851SOL    HW111402   4.944   2.470   2.560
 2851SOL    HW211403   5.029   2.530   2.451
 2851SOL     MW11404   5.016   2.466   2.510
 2852SOL     OW11405   6.040   2.060   3.189
 2852SOL    HW111406   5.975   2.114   3.143
 2852SOL    HW211407   6.121   2.108   3.178
 2852SOL     MW11408   6.042   2.072   3.182
 2853SOL     OW11409   3.586   3.616   2.184
 2853SOL    HW111410   3.573   3.585   2.274
 2853SOL    HW211411   3.516   3.574   2.135
 2853SOL     MW11412   3.576   3.607   2.189
 2854SOL     OW11413   0.755   0.625   0.852
 2854SOL    HW111414   0.788   0.611   0.941
 2854SOL    HW211415   0.766   0.541   0.809
 2854SOL     MW11416   0.760   0.614   0.858
 2855SOL     OW11417   5.623   4.965   2.889
 2855SOL    HW111418   5.601   5.028   2.958
 2855SOL    HW211419   5.555   4.978   2.824
 2855SOL     MW11420   5.612   4.974   2.890
 2856SOL     OW11421   2.490   5.335   3.095
 2856SOL    HW111422   2.403   5.326   3.054
 2856SOL    HW211423   2.539   5.388   3.034
 2856SOL     MW11424   2.485   5.340   3.083
 2857SOL     OW11425   2.094   1.445   4.195
 2857SOL    HW111426   2.154   1.471   4.266
 2857SOL    HW211427   2.124   1.495   4.120
 2857SOL     MW11428   2.105   1.454   4.195
 2858SOL     OW11429   1.987   3.217   3.452
 2858SOL    HW111430   1.932   3.283   3.496
 2858SOL    HW211431   1.958   3.219   3.362
 2858SOL     MW11432   1.977   3.225   3.447
 2859SOL     OW11433   2.536   0.698   2.692
 2859SOL    HW111434   2.464   0.745   2.737
 2859SOL    HW211435   2.509   0.607   2.696
 2859SOL     MW11436   2.524   0.693   2.698
 2860SOL     OW11437   4.834   1.521   2.424
 2860SOL    HW111438   4.864   1.591   2.483
 2860SOL    HW211439   4.778   1.467   2.478
 2860SOL     MW11440   4.831   1.523   2.437
 2861SOL     OW11441   2.156   3.828   4.697
 2861SOL    HW111442   2.094   3.765   4.734
 2861SOL    HW211443   2.203   3.779   4.630
 2861SOL     MW11444   2.154   3.815   4.693
 2862SOL     OW11445   0.776   2.619   3.430
 2862SOL    HW111446   0.706   2.574   3.479
 2862SOL    HW211447   0.743   2.623   3.341
 2862SOL     MW11448   0.763   2.614   3.426
 2863SOL     OW11449   1.402   1.857   1.539
 2863SOL    HW111450   1.338   1.792   1.568
 2863SOL    HW211451   1.390   1.860   1.445
 2863SOL     MW11452   1.393   1.850   1.531
 2864SOL     OW11453   5.479   5.368   0.522
 2864SOL    HW111454   5.422   5.290   0.524
 2864SOL    HW211455   5.482   5.392   0.431
 2864SOL     MW11456   5.472   5.361   0.512
 2865SOL     OW11457   2.585   0.026   0.279
 2865SOL    HW111458   2.589   0.020   0.375
 2865SOL    HW211459   2.668   0.065   0.255
 2865SOL     MW11460   2.596   0.030   0.288
 2866SOL     OW11461   0.807   3.472   2.892
 2866SOL    HW111462   0.802   3.470   2.796
 2866SOL    HW211463   0.851   3.391   2.914
 2866SOL     MW11464   0.812   3.462   2.883
 2867SOL     OW11465   1.285   3.733   0.648
 2867SOL    HW111466   1.253   3.642   0.651
 2867SOL    HW211467   1.229   3.780   0.709
 2867SOL     MW11468   1.274   3.727   0.656
 2868SOL     OW11469   0.669   0.419   3.981
 2868SOL    HW111470   0.635   0.446   3.895
 2868SOL    HW211471   0.618   0.469   4.043
 2868SOL     MW11472   0.659   0.428   3.978
 2869SOL     OW11473   4.030   4.161   2.429
 2869SOL    HW111474   4.050   4.167   2.523
 2869SOL    HW211475   3.980   4.240   2.411
 2869SOL     MW11476   4.026   4.171   2.438
 2870SOL     OW11477   2.167   0.593   2.450
 2870SOL    HW111478   2.125   0.680   2.454
 2870SOL    HW211479   2.095   0.534   2.432
 2870SOL     MW11480   2.153   0.597   2.449
 2871SOL     OW11481   2.293   3.874   0.037
 2871SOL    HW111482   2.307   3.788   0.078
 2871SOL    HW211483   2.199   3.887   0.041
 2871SOL     MW11484   2.283   3.865   0.042
 2872SOL     OW11485   3.261   1.834   5.020
 2872SOL    HW111486   3.249   1.858   5.112
 2872SOL    HW211487   3.247   1.915   4.973
 2872SOL     MW11488   3.257   1.846   5.025
 2873SOL     OW11489   0.485   5.397   3.083
 2873SOL    HW111490   0.409   5.440   3.124
 2873SOL    HW211491   0.476   5.417   2.991
 2873SOL     MW11492   0.474   5.404   3.077
 2874SOL     OW11493   1.412   3.077   1.885
 2874SOL    HW111494   1.429   2.998   1.832
 2874SOL    HW211495   1.498   3.106   1.913
 2874SOL     MW11496   1.424   3.071   1.882
 2875SOL     OW11497   5.090   5.478   2.257
 2875SOL    HW111498   5.022   5.536   2.219
 2875SOL    HW211499   5.083   5.494   2.350
 2875SOL     MW11500   5.081   5.487   2.263
 2876SOL     OW11501   2.612   1.694   1.667
 2876SOL    HW111502   2.570   1.706   1.582
 2876SOL    HW211503   2.648   1.779   1.688
 2876SOL     MW11504   2.611   1.705   1.659
 2877SOL     OW11505   0.200   3.296   2.044
 2877SOL    HW111506   0.272   3.348   2.008
 2877SOL    HW211507   0.181   3.336   2.128
 2877SOL     MW11508   0.206   3.307   2.050
 2878SOL     OW11509   3.428   1.950   2.854
 2878SOL    HW111510   3.506   1.903   2.883
 2878SOL    HW211511   3.403   2.003   2.928
 2878SOL     MW11512   3.434   1.951   2.866
 2879SOL     OW11513   0.228   3.006   4.403
 2879SOL    HW111514   0.297   3.042   4.346
 2879SOL    HW211515   0.245   3.045   4.488
 2879SOL     MW11516   0.238   3.015   4.406
 2880SOL     OW11517   6.023   4.434   1.116
 2880SOL    HW111518   5.976   4.373   1.058
 2880SOL    HW211519   6.025   4.515   1.067
 2880SOL     MW11520   6.017   4.436   1.103
 2881SOL     OW11521   0.430   0.169   3.390
 2881SOL    HW111522   0.365   0.100   3.374
 2881SOL    HW211523   0.497   0.127   3.443
 2881SOL     MW11524   0.430   0.156   3.394
 2882SOL     OW11525   0.433   0.411   1.661
 2882SOL    HW111526   0.525   0.404   1.687
 2882SOL    HW211527   0.436   0.454   1.576
 2882SOL     MW11528   0.445   0.415   1.654
 2883SOL     OW11529   3.951   4.240   1.370
 2883SOL    HW111530   3.874   4.209   1.322
 2883SOL    HW211531   3.954   4.333   1.353
 2883SOL     MW11532   3.942   4.247   1.362
 2884SOL     OW11533   3.782   3.256   5.756
 2884SOL    HW111534   3.754   3.217   5.673
 2884SOL    HW211535   3.833   3.332   5.730
 2884SOL     MW11536   3.785   3.260   5.743
 2885SOL     OW11537   4.471   5.071   0.293
 2885SOL    HW111538   4.567   5.067   0.300
 2885SOL    HW211539   4.443   4.982   0.308
 2885SOL     MW11540   4.480   5.060   0.296
 2886SOL     OW11541   3.825   1.634   3.842
 2886SOL    HW111542   3.763   1.695   3.803
 2886SOL    HW211543   3.816   1.647   3.936
 2886SOL     MW11544   3.817   1.643   3.849
 2887SOL     OW11545   5.703   0.995   3.024
 2887SOL    HW111546   5.673   0.911   3.060
 2887SOL    HW211547   5.786   0.975   2.982
 2887SOL     MW11548   5.709   0.982   3.023
 2888SOL     OW11549   2.703   2.749   3.200
 2888SOL    HW111550   2.783   2.781   3.244
 2888SOL    HW211551   2.724   2.754   3.108
 2888SOL     MW11552   2.715   2.754   3.195
 2889SOL     OW11553   2.113   1.098   1.033
 2889SOL    HW111554   2.174   1.062   1.098
 2889SOL    HW211555   2.027   1.087   1.073
 2889SOL     MW11556   2.110   1.093   1.046
 2890SOL     OW11557   3.051   3.179   1.428
 2890SOL    HW111558   2.964   3.156   1.394
 2890SOL    HW211559   3.036   3.199   1.520
 2890SOL     MW11560   3.038   3.178   1.435
 2891SOL     OW11561   5.156   4.380   2.061
 2891SOL    HW111562   5.100   4.443   2.108
 2891SOL    HW211563   5.152   4.408   1.971
 2891SOL     MW11564   5.149   4.391   2.056
 2892SOL     OW11565   1.371   2.696   4.926
 2892SOL    HW111566   1.381   2.649   4.843
 2892SOL    HW211567   1.459   2.723   4.948
 2892SOL     MW11568   1.383   2.693   4.919
 2893SOL     OW11569   5.359   1.678   4.537
 2893SOL    HW111570   5.350   1.584   4.559
 2893SOL    HW211571   5.338   1.723   4.618
 2893SOL     MW11572   5.355   1.672   4.550
 2894SOL     OW11573   0.245   1.576   1.404
 2894SOL    HW111574   0.292   1.630   1.469
 2894SOL    HW211575   0.293   1.589   1.323
 2894SOL     MW11576   0.256   1.584   1.402
 2895SOL     OW11577   3.942   2.626   5.501
 2895SOL    HW111578   3.906   2.713   5.519
 2895SOL    HW211579   3.925   2.613   5.408
 2895SOL     MW11580   3.935   2.635   5.492
 2896SOL     OW11581   2.116   2.089   4.913
 2896SOL    HW111582   2.105   2.003   4.871
 2896SOL    HW211583   2.169   2.139   4.852
 2896SOL     MW11584   2.121   2.085   4.901
 2897SOL     OW11585   1.416   2.795   0.194
 2897SOL    HW111586   1.325   2.822   0.181
 2897SOL    HW211587   1.462   2.875   0.214
 2897SOL     MW11588   1.411   2.808   0.195
 2898SOL     OW11589   4.960   4.298   5.956
 2898SOL    HW111590   5.031   4.247   5.996
 2898SOL    HW211591   4.979   4.295   5.863
 2898SOL     MW11592   4.971   4.291   5.950
 2899SOL     OW11593   0.463   1.636   5.795
 2899SOL    HW111594   0.544   1.667   5.838
 2899SOL    HW211595   0.494   1.587   5.720
 2899SOL     MW11596   0.477   1.634   5.792
 2900SOL     OW11597   4.802   1.627   4.680
 2900SOL    HW111598   4.834   1.655   4.766
 2900SOL    HW211599   4.802   1.533   4.683
 2900SOL     MW11600   4.806   1.620   4.691
 2901SOL     OW11601   3.742   0.165   5.723
 2901SOL    HW111602   3.756   0.099   5.792
 2901SOL    HW211603   3.730   0.246   5.772
 2901SOL     MW11604   3.742   0.167   5.737
 2902SOL     OW11605   2.192   5.469   5.284
 2902SOL    HW111606   2.175   5.507   5.371
 2902SOL    HW211607   2.233   5.540   5.236
 2902SOL     MW11608   2.195   5.482   5.289
 2903SOL     OW11609   4.568   2.353   4.076
 2903SOL    HW111610   4.651   2.387   4.041
 2903SOL    HW211611   4.562   2.393   4.162
 2903SOL     MW11612   4.578   2.362   4.082
 2904SOL     OW11613   1.891   4.664   0.526
 2904SOL    HW111614   1.922   4.711   0.605
 2904SOL    HW211615   1.809   4.706   0.505
 2904SOL     MW11616   1.885   4.675   0.533
 2905SOL     OW11617   3.682   3.993   4.105
 2905SOL    HW111618   3.726   3.911   4.132
 2905SOL    HW211619   3.593   3.966   4.086
 2905SOL     MW11620   3.677   3.980   4.106
 2906SOL     OW11621   4.139   3.797  -0.002
 2906SOL    HW111622   4.049   3.823   0.019
 2906SOL    HW211623   4.192   3.845   0.060
 2906SOL     MW11624   4.134   3.805   0.008
 2907SOL     OW11625   4.528   4.803   2.374
 2907SOL    HW111626   4.557   4.762   2.292
 2907SOL    HW211627   4.569   4.889   2.372
 2907SOL     MW11628   4.537   4.809   2.363
 2908SOL     OW11629   1.143   5.103   1.543
 2908SOL    HW111630   1.052   5.086   1.519
 2908SOL    HW211631   1.146   5.087   1.637
 2908SOL     MW11632   1.132   5.099   1.552
 2909SOL     OW11633   0.070   3.101   3.609
 2909SOL    HW111634   0.022   3.145   3.538
 2909SOL    HW211635   0.052   3.153   3.686
 2909SOL     MW11636   0.062   3.112   3.609
 2910SOL     OW11637   2.125   1.655   4.500
 2910SOL    HW111638   2.113   1.570   4.456
 2910SOL    HW211639   2.139   1.632   4.591
 2910SOL     MW11640   2.125   1.642   4.505
 2911SOL     OW11641   0.387   5.978   4.677
 2911SOL    HW111642   0.445   5.949   4.748
 2911SOL    HW211643   0.445   6.024   4.617
 2911SOL     MW11644   0.401   5.979   4.678
 2912SOL     OW11645   2.578   3.005   4.264
 2912SOL    HW111646   2.572   2.909   4.272
 2912SOL    HW211647   2.573   3.036   4.354
 2912SOL     MW11648   2.576   2.997   4.276
 2913SOL     OW11649   2.676   5.230   3.730
 2913SOL    HW111650   2.600   5.277   3.694
 2913SOL    HW211651   2.691   5.271   3.814
 2913SOL     MW11652   2.669   5.241   3.735
 2914SOL     OW11653   2.303   1.737   4.220
 2914SOL    HW111654   2.291   1.774   4.308
 2914SOL    HW211655   2.360   1.800   4.177
 2914SOL     MW11656   2.308   1.749   4.226
 2915SOL     OW11657   4.558   3.053   3.538
 2915SOL    HW111658   4.610   2.976   3.563
 2915SOL    HW211659   4.476   3.017   3.506
 2915SOL     MW11660   4.554   3.039   3.538
 2916SOL     OW11661   0.578   2.923   1.482
 2916SOL    HW111662   0.565   2.939   1.388
 2916SOL    HW211663   0.505   2.966   1.524
 2916SOL     MW11664   0.568   2.930   1.475
 2917SOL     OW11665   3.065   0.178   2.532
 2917SOL    HW111666   3.110   0.125   2.465
 2917SOL    HW211667   3.134   0.231   2.569
 2917SOL     MW11668   3.079   0.178   2.528
 2918SOL     OW11669   2.245   4.085   3.624
 2918SOL    HW111670   2.319   4.146   3.636
 2918SOL    HW211671   2.286   4.001   3.609
 2918SOL     MW11672   2.259   4.083   3.624
 2919SOL     OW11673   0.505   2.410   1.427
 2919SOL    HW111674   0.452   2.486   1.401
 2919SOL    HW211675   0.485   2.398   1.519
 2919SOL     MW11676   0.496   2.418   1.435
 2920SOL     OW11677   3.857   3.750   6.098
 2920SOL    HW111678   3.928   3.689   6.121
 2920SOL    HW211679   3.837   3.728   6.008
 2920SOL     MW11680   3.863   3.740   6.090
 2921SOL     OW11681   0.144   2.116   5.394
 2921SOL    HW111682   0.153   2.208   5.366
 2921SOL    HW211683   0.194   2.112   5.475
 2921SOL     MW11684   0.151   2.127   5.400
 2922SOL     OW11685   5.879   0.705   4.026
 2922SOL    HW111686   5.944   0.696   4.098
 2922SOL    HW211687   5.923   0.668   3.951
 2922SOL     MW11688   5.892   0.699   4.026
 2923SOL     OW11689   5.155   5.623   5.422
 2923SOL    HW111690   5.215   5.685   5.465
 2923SOL    HW211691   5.105   5.586   5.493
 2923SOL     MW11692   5.157   5.626   5.435
 2924SOL     OW11693   4.208   5.743   0.136
 2924SOL    HW111694   4.251   5.677   0.081
 2924SOL    HW211695   4.237   5.722   0.224
 2924SOL     MW11696   4.217   5.733   0.140
 2925SOL     OW11697   1.364   4.394   0.174
 2925SOL    HW111698   1.291   4.431   0.124
 2925SOL    HW211699   1.345   4.417   0.264
 2925SOL     MW11700   1.353   4.401   0.178
 2926SOL     OW11701   3.602   2.767   0.593
 2926SOL    HW111702   3.695   2.781   0.613
 2926SOL    HW211703   3.571   2.713   0.665
 2926SOL     MW11704   3.610   2.762   0.604
 2927SOL     OW11705   4.371   4.970   2.148
 2927SOL    HW111706   4.347   4.878   2.163
 2927SOL    HW211707   4.328   4.994   2.067
 2927SOL     MW11708   4.363   4.962   2.141
 2928SOL     OW11709   2.784   5.084   1.939
 2928SOL    HW111710   2.839   5.129   1.874
 2928SOL    HW211711   2.704   5.064   1.893
 2928SOL     MW11712   2.782   5.087   1.926
 2929SOL     OW11713   1.766   3.709   4.900
 2929SOL    HW111714   1.683   3.711   4.949
 2929SOL    HW211715   1.739   3.699   4.809
 2929SOL     MW11716   1.753   3.708   4.895
 2930SOL     OW11717   0.254   3.166   5.442
 2930SOL    HW111718   0.170   3.156   5.397
 2930SOL    HW211719   0.295   3.240   5.401
 2930SOL     MW11720   0.249   3.173   5.432
 2931SOL     OW11721   1.036   0.262   3.793
 2931SOL    HW111722   1.053   0.205   3.718
 2931SOL    HW211723   0.988   0.207   3.854
 2931SOL     MW11724   1.033   0.249   3.791
 2932SOL     OW11725   4.168   0.471   5.978
 2932SOL    HW111726   4.111   0.479   6.056
 2932SOL    HW211727   4.118   0.510   5.908
 2932SOL     MW11728   4.155   0.477   5.980
 2933SOL     OW11729   0.296   4.345   3.620
 2933SOL    HW111730   0.283   4.268   3.678
 2933SOL    HW211731   0.294   4.309   3.533
 2933SOL     MW11732   0.294   4.331   3.617
 2934SOL     OW11733   3.133   6.048   5.610
 2934SOL    HW111734   3.202   5.988   5.641
 2934SOL    HW211735   3.062   6.035   5.671
 2934SOL     MW11736   3.133   6.039   5.621
 2935SOL     OW11737   1.073   4.379   0.054
 2935SOL    HW111738   0.996   4.343   0.099
 2935SOL    HW211739   1.118   4.302   0.020
 2935SOL     MW11740   1.069   4.365   0.056
 2936SOL     OW11741   0.572   4.731   1.374
 2936SOL    HW111742   0.496   4.713   1.431
 2936SOL    HW211743   0.541   4.710   1.286
 2936SOL     MW11744   0.559   4.726   1.370
 2937SOL     OW11745   2.321   2.412   1.096
 2937SOL    HW111746   2.298   2.431   1.005
 2937SOL    HW211747   2.397   2.467   1.113
 2937SOL     MW11748   2.327   2.421   1.087
 2938SOL     OW11749   3.144   1.875   1.777
 2938SOL    HW111750   3.198   1.932   1.721
 2938SOL    HW211751   3.174   1.893   1.865
 2938SOL     MW11752   3.154   1.884   1.780
 2939SOL     OW11753   5.850   0.069   1.139
 2939SOL    HW111754   5.903  -0.012   1.143
 2939SOL    HW211755   5.774   0.049   1.193
 2939SOL     MW11756   5.847   0.057   1.146
 2940SOL     OW11757   4.108   2.061   3.195
 2940SOL    HW111758   4.146   2.145   3.168
 2940SOL    HW211759   4.067   2.080   3.278
 2940SOL     MW11760   4.108   2.073   3.201
 2941SOL     OW11761   5.811   2.273   5.392
 2941SOL    HW111762   5.869   2.329   5.340
 2941SOL    HW211763   5.748   2.333   5.429
 2941SOL     MW11764   5.811   2.287   5.390
 2942SOL     OW11765   1.950   2.228   5.981
 2942SOL    HW111766   1.950   2.132   5.975
 2942SOL    HW211767   1.939   2.246   6.073
 2942SOL     MW11768   1.948   2.219   5.991
 2943SOL     OW11769   2.597   3.308   3.219
 2943SOL    HW111770   2.537   3.361   3.273
 2943SOL    HW211771   2.564   3.318   3.131
 2943SOL     MW11772   2.586   3.316   3.215
 2944SOL     OW11773   5.348   5.555   3.460
 2944SOL    HW111774   5.390   5.641   3.464
 2944SOL    HW211775   5.274   5.568   3.402
 2944SOL     MW11776   5.344   5.567   3.454
 2945SOL     OW11777   1.686   5.572   4.367
 2945SOL    HW111778   1.611   5.594   4.311
 2945SOL    HW211779   1.652   5.581   4.455
 2945SOL     MW11780   1.672   5.575   4.370
 2946SOL     OW11781   3.756   5.147   4.350
 2946SOL    HW111782   3.771   5.200   4.271
 2946SOL    HW211783   3.796   5.198   4.419
 2946SOL     MW11784   3.762   5.159   4.348
 2947SOL     OW11785   1.014   3.578   3.214
 2947SOL    HW111786   0.932   3.542   3.249
 2947SOL    HW211787   0.987   3.627   3.138
 2947SOL     MW11788   1.001   3.579   3.209
 2948SOL     OW11789   4.835   3.028   3.871
 2948SOL    HW111790   4.909   2.967   3.861
 2948SOL    HW211791   4.853   3.073   3.953
 2948SOL     MW11792   4.846   3.026   3.880
 2949SOL     OW11793   4.506   1.917   2.799
 2949SOL    HW111794   4.527   1.884   2.887
 2949SOL    HW211795   4.448   1.851   2.762
 2949SOL     MW11796   4.502   1.905   2.805
 2950SOL     OW11797   5.561   0.763   6.107
 2950SOL    HW111798   5.564   0.701   6.033
 2950SOL    HW211799   5.639   0.816   6.095
 2950SOL     MW11800   5.571   0.762   6.096
 2951SOL     OW11801   5.363   4.409   5.517
 2951SOL    HW111802   5.312   4.336   5.553
 2951SOL    HW211803   5.366   4.472   5.589
 2951SOL     MW11804   5.357   4.407   5.530
 2952SOL     OW11805   0.692   1.830   3.085
 2952SOL    HW111806   0.775   1.780   3.085
 2952SOL    HW211807   0.678   1.852   2.994
 2952SOL     MW11808   0.701   1.826   3.074
 2953SOL     OW11809   2.185   3.519   1.057
 2953SOL    HW111810   2.120   3.482   0.996
 2953SOL    HW211811   2.145   3.507   1.143
 2953SOL     MW11812   2.172   3.513   1.060
 2954SOL     OW11813   5.173   1.211   0.039
 2954SOL    HW111814   5.246   1.225  -0.021
 2954SOL    HW211815   5.167   1.293   0.088
 2954SOL     MW11816   5.181   1.223   0.038
 2955SOL     OW11817   3.537   2.338   2.867
 2955SOL    HW111818   3.617   2.294   2.840
 2955SOL    HW211819   3.536   2.330   2.962
 2955SOL     MW11820   3.546   2.332   2.875
 2956SOL     OW11821   0.659   5.881   4.390
 2956SOL    HW111822   0.752   5.883   4.366
 2956SOL    HW211823   0.649   5.951   4.453
 2956SOL     MW11824   0.669   5.890   4.394
 2957SOL     OW11825   4.452   2.353   3.790
 2957SOL    HW111826   4.519   2.305   3.740
 2957SOL    HW211827   4.454   2.314   3.876
 2957SOL     MW11828   4.460   2.343   3.794
 2958SOL     OW11829   3.053   5.011   1.454
 2958SOL    HW111830   3.019   4.942   1.513
 2958SOL    HW211831   2.982   5.027   1.393
 2958SOL     MW11832   3.040   5.004   1.454
 2959SOL     OW11833   0.910   3.252   4.867
 2959SOL    HW111834   0.904   3.174   4.923
 2959SOL    HW211835   0.917   3.217   4.779
 2959SOL     MW11836   0.910   3.238   4.864
 2960SOL     OW11837   4.507   3.279   1.693
 2960SOL    HW111838   4.460   3.356   1.728
 2960SOL    HW211839   4.539   3.308   1.609
 2960SOL     MW11840   4.505   3.292   1.688
 2961SOL     OW11841   3.303   2.680   2.444
 2961SOL    HW111842   3.241   2.622   2.488
 2961SOL    HW211843   3.297   2.655   2.352
 2961SOL     MW11844   3.295   2.670   2.438
 2962SOL     OW11845   2.102   1.715   5.016
 2962SOL    HW111846   2.134   1.782   4.954
 2962SOL    HW211847   2.114   1.754   5.101
 2962SOL     MW11848   2.107   1.728   5.019
 2963SOL     OW11849   3.048   5.431   3.948
 2963SOL    HW111850   3.038   5.350   3.897
 2963SOL    HW211851   3.045   5.402   4.038
 2963SOL     MW11852   3.046   5.418   3.952
 2964SOL     OW11853   2.066   1.917   4.316
 2964SOL    HW111854   2.140   1.925   4.376
 2964SOL    HW211855   2.106   1.898   4.232
 2964SOL     MW11856   2.080   1.916   4.313
 2965SOL     OW11857   2.963   0.318   3.737
 2965SOL    HW111858   2.927   0.257   3.802
 2965SOL    HW211859   2.950   0.274   3.654
 2965SOL     MW11860   2.957   0.305   3.735
 2966SOL     OW11861   0.845   4.140   4.740
 2966SOL    HW111862   0.911   4.134   4.670
 2966SOL    HW211863   0.892   4.181   4.812
 2966SOL     MW11864   0.859   4.144   4.740
 2967SOL     OW11865   5.945   1.031   4.694
 2967SOL    HW111866   6.020   1.023   4.634
 2967SOL    HW211867   5.984   1.036   4.780
 2967SOL     MW11868   5.959   1.031   4.697
 2968SOL     OW11869   3.560   4.588   0.589
 2968SOL    HW111870   3.545   4.653   0.519
 2968SOL    HW211871   3.561   4.639   0.669
 2968SOL     MW11872   3.558   4.602   0.590
 2969SOL     OW11873   0.093   3.909   1.024
 2969SOL    HW111874   0.144   3.859   1.089
 2969SOL    HW211875   0.152   3.978   0.996
 2969SOL     MW11876   0.107   3.911   1.029
 2970SOL     OW11877   4.255   1.971   5.457
 2970SOL    HW111878   4.235   2.064   5.475
 2970SOL    HW211879   4.269   1.933   5.543
 2970SOL     MW11880   4.255   1.978   5.469
 2971SOL     OW11881   2.844   1.326   0.251
 2971SOL    HW111882   2.853   1.413   0.293
 2971SOL    HW211883   2.827   1.346   0.160
 2971SOL     MW11884   2.843   1.339   0.245
 2972SOL     OW11885   3.448   0.408   2.041
 2972SOL    HW111886   3.518   0.356   2.081
 2972SOL    HW211887   3.459   0.395   1.948
 2972SOL     MW11888   3.458   0.400   2.035
 2973SOL     OW11889   4.465   0.116   3.400
 2973SOL    HW111890   4.462   0.182   3.470
 2973SOL    HW211891   4.514   0.157   3.330
 2973SOL     MW11892   4.470   0.129   3.400
 2974SOL     OW11893   2.672   2.025   1.506
 2974SOL    HW111894   2.590   2.040   1.458
 2974SOL    HW211895   2.666   2.083   1.581
 2974SOL     MW11896   2.662   2.034   1.509
 2975SOL     OW11897   0.997   1.859   2.829
 2975SOL    HW111898   0.986   1.822   2.741
 2975SOL    HW211899   0.988   1.953   2.817
 2975SOL     MW11900   0.995   1.866   2.817
 2976SOL     OW11901   4.382   1.853   0.385
 2976SOL    HW111902   4.374   1.875   0.478
 2976SOL    HW211903   4.476   1.856   0.368
 2976SOL     MW11904   4.392   1.856   0.394
 2977SOL     OW11905   1.720   0.165   5.680
 2977SOL    HW111906   1.742   0.208   5.763
 2977SOL    HW211907   1.802   0.128   5.649
 2977SOL     MW11908   1.732   0.165   5.686
 2978SOL     OW11909   2.951   1.107   3.466
 2978SOL    HW111910   3.005   1.180   3.435
 2978SOL    HW211911   2.898   1.145   3.535
 2978SOL     MW11912   2.951   1.120   3.470
 2979SOL     OW11913   1.424   1.133   3.664
 2979SOL    HW111914   1.509   1.120   3.620
 2979SOL    HW211915   1.373   1.184   3.603
 2979SOL     MW11916   1.428   1.137   3.651
 2980SOL     OW11917   5.889   0.458   4.613
 2980SOL    HW111918   5.868   0.379   4.561
 2980SOL    HW211919   5.824   0.458   4.682
 2980SOL     MW11920   5.879   0.448   4.615
 2981SOL     OW11921   1.632   0.405   2.487
 2981SOL    HW111922   1.595   0.493   2.501
 2981SOL    HW211923   1.627   0.364   2.572
 2981SOL     MW11924   1.627   0.411   2.498
 2982SOL     OW11925   5.427   2.789   5.657
 2982SOL    HW111926   5.388   2.804   5.570
 2982SOL    HW211927   5.466   2.872   5.679
 2982SOL     MW11928   5.427   2.801   5.649
 2983SOL     OW11929   3.828   1.588   5.248
 2983SOL    HW111930   3.771   1.664   5.237
 2983SOL    HW211931   3.845   1.584   5.341
 2983SOL     MW11932   3.823   1.597   5.258
 2984SOL     OW11933   4.939   0.661   1.360
 2984SOL    HW111934   5.024   0.659   1.406
 2984SOL    HW211935   4.950   0.731   1.296
 2984SOL     MW11936   4.951   0.669   1.358
 2985SOL     OW11937   2.784   3.959   2.311
 2985SOL    HW111938   2.856   3.922   2.363
 2985SOL    HW211939   2.758   3.888   2.254
 2985SOL     MW11940   2.790   3.946   2.311
 2986SOL     OW11941   5.798   0.926   5.653
 2986SOL    HW111942   5.846   0.898   5.574
 2986SOL    HW211943   5.707   0.909   5.632
 2986SOL     MW11944   5.793   0.920   5.641
 2987SOL     OW11945   2.497   2.347   4.546
 2987SOL    HW111946   2.566   2.323   4.608
 2987SOL    HW211947   2.525   2.311   4.463
 2987SOL     MW11948   2.508   2.340   4.544
 2988SOL     OW11949   3.024   5.940   0.309
 2988SOL    HW111950   2.986   6.015   0.356
 2988SOL    HW211951   2.949   5.895   0.272
 2988SOL     MW11952   3.010   5.944   0.310
 2989SOL     OW11953   5.648   2.193   1.913
 2989SOL    HW111954   5.718   2.133   1.888
 2989SOL    HW211955   5.649   2.259   1.845
 2989SOL     MW11956   5.657   2.193   1.901
 2990SOL     OW11957   1.127   0.676   1.635
 2990SOL    HW111958   1.049   0.711   1.680
 2990SOL    HW211959   1.091   0.621   1.567
 2990SOL     MW11960   1.113   0.674   1.632
 2991SOL     OW11961   3.595   5.728   1.053
 2991SOL    HW111962   3.683   5.717   1.016
 2991SOL    HW211963   3.561   5.807   1.013
 2991SOL     MW11964   3.601   5.736   1.044
 2992SOL     OW11965   4.062   5.714   4.702
 2992SOL    HW111966   3.983   5.684   4.748
 2992SOL    HW211967   4.108   5.634   4.678
 2992SOL     MW11968   4.058   5.701   4.704
 2993SOL     OW11969   2.560   3.053   5.874
 2993SOL    HW111970   2.488   2.989   5.879
 2993SOL    HW211971   2.620   3.016   5.811
 2993SOL     MW11972   2.558   3.041   5.867
 2994SOL     OW11973   2.055   4.225   5.431
 2994SOL    HW111974   2.064   4.153   5.494
 2994SOL    HW211975   2.113   4.292   5.465
 2994SOL     MW11976   2.063   4.224   5.443
 2995SOL     OW11977   0.789   5.420   2.764
 2995SOL    HW111978   0.696   5.424   2.740
 2995SOL    HW211979   0.790   5.416   2.858
 2995SOL     MW11980   0.778   5.420   2.772
 2996SOL     OW11981   3.535   3.852   0.275
 2996SOL    HW111982   3.542   3.756   0.274
 2996SOL    HW211983   3.482   3.872   0.199
 2996SOL     MW11984   3.530   3.842   0.266
 2997SOL     OW11985   4.872   4.239   4.717
 2997SOL    HW111986   4.926   4.280   4.650
 2997SOL    HW211987   4.909   4.269   4.799
 2997SOL     MW11988   4.883   4.248   4.719
 2998SOL     OW11989   0.878   5.961   1.231
 2998SOL    HW111990   0.874   5.870   1.261
 2998SOL    HW211991   0.873   5.954   1.136
 2998SOL     MW11992   0.877   5.949   1.223
 2999SOL     OW11993   3.860   5.772   4.114
 2999SOL    HW111994   3.825   5.850   4.157
 2999SOL    HW211995   3.825   5.700   4.164
 2999SOL     MW11996   3.852   5.773   4.125
 3000SOL     OW11997   0.856   6.047   2.559
 3000SOL    HW111998   0.811   5.975   2.513
 3000SOL    HW211999   0.946   6.042   2.528
 3000SOL     MW12000   0.861   6.038   2.549
 3001SOL     OW12001   5.068   3.621   3.344
 3001SOL    HW112002   5.074   3.543   3.288
 3001SOL    HW212003   5.158   3.639   3.368
 3001SOL     MW12004   5.079   3.614   3.340
 3002SOL     OW12005   0.589   5.778   1.922
 3002SOL    HW112006   0.583   5.683   1.906
 3002SOL    HW212007   0.512   5.797   1.975
 3002SOL     MW12008   0.579   5.769   1.926
 3003SOL     OW12009   5.973   1.727   3.474
 3003SOL    HW112010   5.885   1.710   3.441
 3003SOL    HW212011   6.020   1.761   3.399
 3003SOL     MW12012   5.968   1.729   3.461
 3004SOL     OW12013   5.880   0.628   2.100
 3004SOL    HW112014   5.971   0.645   2.127
 3004SOL    HW212015   5.853   0.708   2.057
 3004SOL     MW12016   5.888   0.639   2.098
 3005SOL     OW12017   0.650   5.404   5.834
 3005SOL    HW112018   0.573   5.427   5.781
 3005SOL    HW212019   0.626   5.428   5.922
 3005SOL     MW12020   0.638   5.410   5.838
 3006SOL     OW12021   0.922   6.062   2.006
 3006SOL    HW112022   0.894   6.008   2.080
 3006SOL    HW212023   0.940   6.147   2.044
 3006SOL     MW12024   0.921   6.066   2.019
 3007SOL     OW12025   1.418   5.760   0.816
 3007SOL    HW112026   1.336   5.806   0.840
 3007SOL    HW212027   1.423   5.769   0.721
 3007SOL     MW12028   1.408   5.767   0.808
 3008SOL     OW12029   0.233   2.960   2.192
 3008SOL    HW112030   0.213   2.868   2.172
 3008SOL    HW212031   0.242   2.962   2.286
 3008SOL     MW12032   0.231   2.949   2.201
 3009SOL     OW12033   2.433   1.756   3.693
 3009SOL    HW112034   2.515   1.737   3.646
 3009SOL    HW212035   2.426   1.850   3.691
 3009SOL     MW12036   2.442   1.765   3.687
 3010SOL     OW12037   2.348   5.633   4.943
 3010SOL    HW112038   2.304   5.689   5.008
 3010SOL    HW212039   2.292   5.556   4.936
 3010SOL     MW12040   2.336   5.630   4.950
 3011SOL     OW12041   5.969   4.641   5.271
 3011SOL    HW112042   6.064   4.640   5.282
 3011SOL    HW212043   5.946   4.733   5.274
 3011SOL     MW12044   5.978   4.652   5.273
 3012SOL     OW12045   0.292   3.491   2.921
 3012SOL    HW112046   0.216   3.435   2.901
 3012SOL    HW212047   0.256   3.578   2.927
 3012SOL     MW12048   0.279   3.494   2.919
 3013SOL     OW12049   1.122   1.396   3.462
 3013SOL    HW112050   1.106   1.409   3.368
 3013SOL    HW212051   1.187   1.461   3.484
 3013SOL     MW12052   1.127   1.405   3.453
 3014SOL     OW12053   1.644   2.609   4.689
 3014SOL    HW112054   1.638   2.522   4.728
 3014SOL    HW212055   1.619   2.596   4.598
 3014SOL     MW12056   1.640   2.597   4.683
 3015SOL     OW12057   3.874   1.754   3.223
 3015SOL    HW112058   3.805   1.783   3.284
 3015SOL    HW212059   3.925   1.693   3.274
 3015SOL     MW12060   3.872   1.751   3.237
 3016SOL     OW12061   3.979   3.128   4.583
 3016SOL    HW112062   3.961   3.077   4.662
 3016SOL    HW212063   3.983   3.218   4.614
 3016SOL     MW12064   3.978   3.133   4.596
 3017SOL     OW12065   4.190   0.141   0.534
 3017SOL    HW112066   4.249   0.079   0.491
 3017SOL    HW212067   4.241   0.177   0.606
 3017SOL     MW12068   4.203   0.138   0.537
 3018SOL     OW12069   3.354   3.628   6.012
 3018SOL    HW112070   3.294   3.703   6.013
 3018SOL    HW212071   3.426   3.656   6.068
 3018SOL     MW12072   3.355   3.640   6.019
 3019SOL     OW12073   0.680   5.433   3.382
 3019SOL    HW112074   0.607   5.373   3.401
 3019SOL    HW212075   0.640   5.502   3.330
 3019SOL     MW12076   0.666   5.434   3.378
 3020SOL     OW12077   5.033   2.226   1.431
 3020SOL    HW112078   5.037   2.241   1.526
 3020SOL    HW212079   4.989   2.303   1.397
 3020SOL     MW12080   5.028   2.237   1.439
 3021SOL     OW12081   0.769   3.389   2.317
 3021SOL    HW112082   0.681   3.380   2.279
 3021SOL    HW212083   0.774   3.480   2.343
 3021SOL     MW12084   0.759   3.399   2.316
 3022SOL     OW12085   1.427   0.640   4.359
 3022SOL    HW112086   1.424   0.579   4.434
 3022SOL    HW212087   1.395   0.588   4.286
 3022SOL     MW12088   1.423   0.626   4.360
 3023SOL     OW12089   0.808   2.957   3.465
 3023SOL    HW112090   0.808   3.046   3.502
 3023SOL    HW212091   0.888   2.952   3.415
 3023SOL     MW12092   0.817   2.967   3.464
 3024SOL     OW12093   5.810   0.120   3.086
 3024SOL    HW112094   5.832   0.048   3.146
 3024SOL    HW212095   5.793   0.077   3.004
 3024SOL     MW12096   5.811   0.106   3.084
 3025SOL     OW12097   4.961   4.392   1.492
 3025SOL    HW112098   4.888   4.424   1.547
 3025SOL    HW212099   4.940   4.423   1.405
 3025SOL     MW12100   4.950   4.399   1.488
 3026SOL     OW12101   4.046   4.061   3.044
 3026SOL    HW112102   3.964   4.097   3.079
 3026SOL    HW212103   4.077   4.003   3.112
 3026SOL     MW12104   4.040   4.059   3.056
 3027SOL     OW12105   5.494   6.059   1.389
 3027SOL    HW112106   5.426   6.115   1.429
 3027SOL    HW212107   5.485   6.075   1.296
 3027SOL     MW12108   5.485   6.068   1.383
 3028SOL     OW12109   2.361   0.334   3.810
 3028SOL    HW112110   2.457   0.336   3.819
 3028SOL    HW212111   2.334   0.261   3.864
 3028SOL     MW12112   2.369   0.325   3.817
 3029SOL     OW12113   3.001   3.306   2.828
 3029SOL    HW112114   3.039   3.391   2.852
 3029SOL    HW212115   3.023   3.295   2.737
 3029SOL     MW12116   3.008   3.315   2.820
 3030SOL     OW12117   4.205   4.382   5.061
 3030SOL    HW112118   4.183   4.475   5.076
 3030SOL    HW212119   4.201   4.343   5.147
 3030SOL     MW12120   4.201   4.389   5.073
 3031SOL     OW12121   5.175   0.410   5.541
 3031SOL    HW112122   5.083   0.437   5.551
 3031SOL    HW212123   5.208   0.465   5.471
 3031SOL     MW12124   5.168   0.420   5.534
 3032SOL     OW12125   1.548   3.747   4.677
 3032SOL    HW112126   1.464   3.795   4.679
 3032SOL    HW212127   1.560   3.724   4.586
 3032SOL     MW12128   1.539   3.750   4.667
 3033SOL     OW12129   1.563   3.283   4.362
 3033SOL    HW112130   1.559   3.234   4.445
 3033SOL    HW212131   1.639   3.248   4.318
 3033SOL     MW12132   1.571   3.273   4.367
 3034SOL     OW12133   1.023   4.829   0.641
 3034SOL    HW112134   0.948   4.824   0.581
 3034SOL    HW212135   0.994   4.890   0.708
 3034SOL     MW12136   1.010   4.836   0.642
 3035SOL     OW12137   5.662   5.987   5.521
 3035SOL    HW112138   5.664   6.042   5.599
 3035SOL    HW212139   5.745   5.940   5.523
 3035SOL     MW12140   5.672   5.988   5.531
 3036SOL     OW12141   0.973   4.675   5.415
 3036SOL    HW112142   0.930   4.601   5.459
 3036SOL    HW212143   1.010   4.638   5.336
 3036SOL     MW12144   0.972   4.662   5.411
 3037SOL     OW12145   2.013   4.506   1.042
 3037SOL    HW112146   1.920   4.501   1.018
 3037SOL    HW212147   2.059   4.506   0.959
 3037SOL     MW12148   2.007   4.506   1.029
 3038SOL     OW12149   0.845   5.545   4.842
 3038SOL    HW112150   0.931   5.539   4.886
 3038SOL    HW212151   0.865   5.585   4.758
 3038SOL     MW12152   0.858   5.549   4.837
 3039SOL     OW12153   5.944   3.691   3.687
 3039SOL    HW112154   5.929   3.776   3.643
 3039SOL    HW212155   6.009   3.648   3.632
 3039SOL     MW12156   5.950   3.697   3.675
 3040SOL     OW12157   2.992   0.664   3.173
 3040SOL    HW112158   2.966   0.745   3.129
 3040SOL    HW212159   2.976   0.682   3.265
 3040SOL     MW12160   2.987   0.676   3.178
 3041SOL     OW12161   1.938   1.246   3.492
 3041SOL    HW112162   1.890   1.267   3.572
 3041SOL    HW212163   1.927   1.323   3.437
 3041SOL     MW12164   1.931   1.258   3.495
 3042SOL     OW12165   5.116   2.100   0.557
 3042SOL    HW112166   5.026   2.073   0.536
 3042SOL    HW212167   5.153   2.125   0.473
 3042SOL     MW12168   5.110   2.100   0.544
 3043SOL     OW12169   5.330   2.770   2.087
 3043SOL    HW112170   5.392   2.703   2.054
 3043SOL    HW212171   5.352   2.848   2.038
 3043SOL     MW12172   5.340   2.771   2.077
 3044SOL     OW12173   2.892   2.938   3.829
 3044SOL    HW112174   2.799   2.957   3.848
 3044SOL    HW212175   2.894   2.924   3.735
 3044SOL     MW12176   2.880   2.939   3.820
 3045SOL     OW12177   0.404   0.195   1.202
 3045SOL    HW112178   0.314   0.219   1.226
 3045SOL    HW212179   0.393   0.142   1.124
 3045SOL     MW12180   0.392   0.192   1.196
 3046SOL     OW12181   0.524   4.976   3.268
 3046SOL    HW112182   0.504   4.887   3.300
 3046SOL    HW212183   0.517   4.969   3.174
 3046SOL     MW12184   0.521   4.964   3.261
 3047SOL     OW12185   5.903   0.981   2.813
 3047SOL    HW112186   5.971   0.919   2.784
 3047SOL    HW212187   5.822   0.943   2.782
 3047SOL     MW12188   5.902   0.969   2.806
 3048SOL     OW12189   1.582   4.477   2.910
 3048SOL    HW112190   1.563   4.384   2.894
 3048SOL    HW212191   1.573   4.487   3.004
 3048SOL     MW12192   1.578   4.467   2.920
 3049SOL     OW12193   3.337   3.098   5.086
 3049SOL    HW112194   3.281   3.155   5.032
 3049SOL    HW212195   3.306   3.113   5.174
 3049SOL     MW12196   3.326   3.107   5.089
 3050SOL     OW12197   3.944   3.857   1.120
 3050SOL    HW112198   3.904   3.882   1.204
 3050SOL    HW212199   4.035   3.882   1.130
 3050SOL     MW12200   3.950   3.863   1.132
 3051SOL     OW12201   3.121   2.462   2.685
 3051SOL    HW112202   3.195   2.522   2.693
 3051SOL    HW212203   3.100   2.462   2.592
 3051SOL     MW12204   3.127   2.469   2.675
 3052SOL     OW12205   2.560   4.663   1.678
 3052SOL    HW112206   2.551   4.567   1.677
 3052SOL    HW212207   2.586   4.682   1.767
 3052SOL     MW12208   2.562   4.653   1.688
 3053SOL     OW12209   0.590   3.833   4.861
 3053SOL    HW112210   0.663   3.882   4.900
 3053SOL    HW212211   0.628   3.790   4.785
 3053SOL     MW12212   0.604   3.834   4.857
 3054SOL     OW12213   0.214   4.391   3.273
 3054SOL    HW112214   0.286   4.394   3.210
 3054SOL    HW212215   0.251   4.425   3.353
 3054SOL     MW12216   0.227   4.395   3.275
 3055SOL     OW12217   2.318   4.407   2.778
 3055SOL    HW112218   2.353   4.334   2.726
 3055SOL    HW212219   2.337   4.383   2.868
 3055SOL     MW12220   2.324   4.395   2.782
 3056SOL     OW12221   1.485   1.583   1.692
 3056SOL    HW112222   1.509   1.675   1.680
 3056SOL    HW212223   1.449   1.557   1.607
 3056SOL     MW12224   1.484   1.591   1.680
 3057SOL     OW12225   2.721   1.835   1.183
 3057SOL    HW112226   2.803   1.833   1.232
 3057SOL    HW212227   2.656   1.804   1.244
 3057SOL     MW12228   2.723   1.831   1.196
 3058SOL     OW12229   1.263   4.039   3.646
 3058SOL    HW112230   1.260   4.112   3.710
 3058SOL    HW212231   1.177   4.000   3.651
 3058SOL     MW12232   1.253   4.044   3.654
 3059SOL     OW12233   6.098   3.335   3.540
 3059SOL    HW112234   6.004   3.353   3.552
 3059SOL    HW212235   6.115   3.362   3.450
 3059SOL     MW12236   6.088   3.341   3.530
 3060SOL     OW12237   1.645   3.893   2.446
 3060SOL    HW112238   1.597   3.974   2.424
 3060SOL    HW212239   1.619   3.875   2.536
 3060SOL     MW12240   1.636   3.901   2.454
 3061SOL     OW12241   1.645   3.460   2.711
 3061SOL    HW112242   1.711   3.497   2.771
 3061SOL    HW212243   1.676   3.483   2.625
 3061SOL     MW12244   1.657   3.467   2.708
 3062SOL     OW12245   1.508   5.911   1.628
 3062SOL    HW112246   1.541   5.990   1.672
 3062SOL    HW212247   1.458   5.944   1.554
 3062SOL     MW12248   1.506   5.924   1.624
 3063SOL     OW12249   3.509   1.367   0.692
 3063SOL    HW112250   3.559   1.435   0.738
 3063SOL    HW212251   3.534   1.376   0.601
 3063SOL     MW12252   3.518   1.376   0.687
 3064SOL     OW12253   4.497   0.434   3.597
 3064SOL    HW112254   4.458   0.471   3.676
 3064SOL    HW212255   4.531   0.350   3.624
 3064SOL     MW12256   4.496   0.429   3.610
 3065SOL     OW12257   2.997   0.245   4.278
 3065SOL    HW112258   2.984   0.312   4.345
 3065SOL    HW212259   3.024   0.168   4.327
 3065SOL     MW12260   2.999   0.244   4.292
 3066SOL     OW12261   4.691   2.649   4.039
 3066SOL    HW112262   4.710   2.577   4.100
 3066SOL    HW212263   4.735   2.623   3.959
 3066SOL     MW12264   4.699   2.637   4.037
 3067SOL     OW12265   5.458   0.806   3.219
 3067SOL    HW112266   5.480   0.783   3.128
 3067SOL    HW212267   5.519   0.755   3.271
 3067SOL     MW12268   5.468   0.797   3.214
 3068SOL     OW12269   2.176   2.603   0.498
 3068SOL    HW112270   2.252   2.544   0.492
 3068SOL    HW212271   2.200   2.678   0.446
 3068SOL     MW12272   2.188   2.604   0.491
 3069SOL     OW12273   5.310   2.671   4.664
 3069SOL    HW112274   5.291   2.764   4.681
 3069SOL    HW212275   5.344   2.671   4.575
 3069SOL     MW12276   5.311   2.683   4.655
 3070SOL     OW12277   3.091   5.040   6.091
 3070SOL    HW112278   3.041   5.018   6.012
 3070SOL    HW212279   3.025   5.071   6.152
 3070SOL     MW12280   3.077   5.041   6.089
 3071SOL     OW12281   4.272   4.900   1.549
 3071SOL    HW112282   4.213   4.824   1.545
 3071SOL    HW212283   4.254   4.948   1.469
 3071SOL     MW12284   4.262   4.896   1.539
 3072SOL     OW12285   1.214   4.303   5.535
 3072SOL    HW112286   1.176   4.260   5.457
 3072SOL    HW212287   1.292   4.253   5.553
 3072SOL     MW12288   1.218   4.292   5.527
 3073SOL     OW12289   2.077   0.366   5.498
 3073SOL    HW112290   2.146   0.372   5.564
 3073SOL    HW212291   2.123   0.375   5.415
 3073SOL     MW12292   2.091   0.368   5.496
 3074SOL     OW12293   3.271   2.420   3.803
 3074SOL    HW112294   3.198   2.364   3.774
 3074SOL    HW212295   3.303   2.379   3.882
 3074SOL     MW12296   3.266   2.408   3.809
 3075SOL     OW12297   0.049   4.458   0.440
 3075SOL    HW112298   0.086   4.546   0.435
 3075SOL    HW212299   0.004   4.456   0.524
 3075SOL     MW12300   0.048   4.468   0.449
 3076SOL     OW12301   0.660   4.103   0.703
 3076SOL    HW112302   0.709   4.151   0.635
 3076SOL    HW212303   0.597   4.165   0.735
 3076SOL     MW12304   0.658   4.116   0.698
 3077SOL     OW12305   5.377   3.520   2.529
 3077SOL    HW112306   5.432   3.597   2.510
 3077SOL    HW212307   5.439   3.448   2.532
 3077SOL     MW12308   5.391   3.521   2.527
 3078SOL     OW12309   5.411   1.006   0.176
 3078SOL    HW112310   5.363   1.046   0.250
 3078SOL    HW212311   5.354   0.936   0.147
 3078SOL     MW12312   5.398   1.003   0.182
 3079SOL     OW12313   2.117   1.013   2.292
 3079SOL    HW112314   2.133   1.108   2.296
 3079SOL    HW212315   2.048   1.003   2.228
 3079SOL     MW12316   2.111   1.024   2.285
 3080SOL     OW12317   2.881   1.601   1.493
 3080SOL    HW112318   2.824   1.528   1.521
 3080SOL    HW212319   2.820   1.672   1.478
 3080SOL     MW12320   2.867   1.600   1.495
 3081SOL     OW12321   4.745   5.295   5.488
 3081SOL    HW112322   4.666   5.349   5.484
 3081SOL    HW212323   4.802   5.341   5.548
 3081SOL     MW12324   4.742   5.307   5.494
 3082SOL     OW12325   2.215   0.034   1.415
 3082SOL    HW112326   2.223   0.097   1.343
 3082SOL    HW212327   2.131  -0.007   1.401
 3082SOL     MW12328   2.206   0.037   1.405
 3083SOL     OW12329   5.175   4.546   1.183
 3083SOL    HW112330   5.259   4.543   1.230
 3083SOL    HW212331   5.118   4.597   1.239
 3083SOL     MW12332   5.178   4.552   1.195
 3084SOL     OW12333   3.498   0.615   0.152
 3084SOL    HW112334   3.550   0.621   0.233
 3084SOL    HW212335   3.478   0.523   0.143
 3084SOL     MW12336   3.502   0.605   0.161
 3085SOL     OW12337   0.558   5.069   0.940
 3085SOL    HW112338   0.585   5.133   0.873
 3085SOL    HW212339   0.618   4.997   0.928
 3085SOL     MW12340   0.568   5.068   0.931
 3086SOL     OW12341   5.934   4.219   1.910
 3086SOL    HW112342   5.988   4.298   1.916
 3086SOL    HW212343   5.852   4.249   1.872
 3086SOL     MW12344   5.931   4.232   1.906
 3087SOL     OW12345   4.328   3.161   4.111
 3087SOL    HW112346   4.272   3.178   4.187
 3087SOL    HW212347   4.315   3.236   4.055
 3087SOL     MW12348   4.320   3.172   4.114
 3088SOL     OW12349   2.812   4.608   4.612
 3088SOL    HW112350   2.892   4.655   4.588
 3088SOL    HW212351   2.787   4.647   4.695
 3088SOL     MW12352   2.819   4.619   4.619
 3089SOL     OW12353   2.181   1.754   0.066
 3089SOL    HW112354   2.169   1.797   0.151
 3089SOL    HW212355   2.233   1.677   0.085
 3089SOL     MW12356   2.186   1.750   0.078
 3090SOL     OW12357   3.599   5.966   4.468
 3090SOL    HW112358   3.671   5.973   4.531
 3090SOL    HW212359   3.641   5.945   4.386
 3090SOL     MW12360   3.613   5.964   4.466
 3091SOL     OW12361   0.528   1.577   0.885
 3091SOL    HW112362   0.489   1.491   0.866
 3091SOL    HW212363   0.504   1.630   0.810
 3091SOL     MW12364   0.520   1.573   0.874
 3092SOL     OW12365   1.839   4.959   5.634
 3092SOL    HW112366   1.784   5.032   5.604
 3092SOL    HW212367   1.793   4.882   5.603
 3092SOL     MW12368   1.827   4.959   5.627
 3093SOL     OW12369   2.867   1.059   0.137
 3093SOL    HW112370   2.856   1.082   0.044
 3093SOL    HW212371   2.932   1.121   0.169
 3093SOL     MW12372   2.873   1.069   0.129
 3094SOL     OW12373   3.392   4.780   2.226
 3094SOL    HW112374   3.457   4.732   2.278
 3094SOL    HW212375   3.405   4.748   2.137
 3094SOL     MW12376   3.401   4.770   2.221
 3095SOL     OW12377   5.365   6.012   3.556
 3095SOL    HW112378   5.425   5.961   3.611
 3095SOL    HW212379   5.422   6.070   3.507
 3095SOL     MW12380   5.379   6.012   3.556
 3096SOL     OW12381   5.534   3.215   0.741
 3096SOL    HW112382   5.481   3.169   0.675
 3096SOL    HW212383   5.564   3.293   0.697
 3096SOL     MW12384   5.531   3.218   0.728
 3097SOL     OW12385   4.659   0.190   1.783
 3097SOL    HW112386   4.600   0.179   1.858
 3097SOL    HW212387   4.744   0.162   1.816
 3097SOL     MW12388   4.662   0.185   1.796
 3098SOL     OW12389   5.767   2.613   4.336
 3098SOL    HW112390   5.769   2.698   4.291
 3098SOL    HW212391   5.748   2.635   4.427
 3098SOL     MW12392   5.765   2.626   4.342
 3099SOL     OW12393   3.723   3.081   0.377
 3099SOL    HW112394   3.656   3.014   0.397
 3099SOL    HW212395   3.672   3.157   0.352
 3099SOL     MW12396   3.709   3.082   0.377
 3100SOL     OW12397   3.777   4.257   1.788
 3100SOL    HW112398   3.753   4.342   1.825
 3100SOL    HW212399   3.785   4.200   1.863
 3100SOL     MW12400   3.775   4.261   1.801
 3101SOL     OW12401   4.983   1.981   1.135
 3101SOL    HW112402   4.988   2.062   1.186
 3101SOL    HW212403   5.009   2.006   1.047
 3101SOL     MW12404   4.987   1.994   1.131
 3102SOL     OW12405   3.812   5.934   5.497
 3102SOL    HW112406   3.749   5.992   5.453
 3102SOL    HW212407   3.776   5.847   5.487
 3102SOL     MW12408   3.800   5.931   5.490
 3103SOL     OW12409   1.161   3.131   5.623
 3103SOL    HW112410   1.076   3.101   5.591
 3103SOL    HW212411   1.148   3.142   5.717
 3103SOL     MW12412   1.149   3.128   5.631
 3104SOL     OW12413   5.767   1.390   2.984
 3104SOL    HW112414   5.687   1.370   3.033
 3104SOL    HW212415   5.812   1.454   3.037
 3104SOL     MW12416   5.762   1.395   2.996
 3105SOL     OW12417   0.693   3.287   4.164
 3105SOL    HW112418   0.722   3.326   4.247
 3105SOL    HW212419   0.739   3.337   4.098
 3105SOL     MW12420   0.702   3.298   4.166
 3106SOL     OW12421   3.312   5.020   1.755
 3106SOL    HW112422   3.233   5.060   1.793
 3106SOL    HW212423   3.343   5.084   1.692
 3106SOL     MW12424   3.306   5.032   1.752
 3107SOL     OW12425   3.223   3.532   4.369
 3107SOL    HW112426   3.240   3.509   4.461
 3107SOL    HW212427   3.285   3.480   4.320
 3107SOL     MW12428   3.232   3.523   4.374
 3108SOL     OW12429   5.171   3.962   0.821
 3108SOL    HW112430   5.157   4.054   0.798
 3108SOL    HW212431   5.151   3.914   0.742
 3108SOL     MW12432   5.167   3.967   0.809
 3109SOL     OW12433   3.721   2.265   4.885
 3109SOL    HW112434   3.631   2.243   4.858
 3109SOL    HW212435   3.709   2.332   4.951
 3109SOL     MW12436   3.708   2.270   4.889
 3110SOL     OW12437   2.583   4.300   3.296
 3110SOL    HW112438   2.519   4.336   3.359
 3110SOL    HW212439   2.544   4.318   3.211
 3110SOL     MW12440   2.570   4.307   3.294
 3111SOL     OW12441   5.162   0.416   1.274
 3111SOL    HW112442   5.196   0.333   1.309
 3111SOL    HW212443   5.221   0.482   1.309
 3111SOL     MW12444   5.173   0.414   1.283
 3112SOL     OW12445   0.095   0.137   1.812
 3112SOL    HW112446   0.177   0.179   1.839
 3112SOL    HW212447   0.054   0.200   1.755
 3112SOL     MW12448   0.100   0.149   1.809
 3113SOL     OW12449   3.132   5.533   6.056
 3113SOL    HW112450   3.199   5.511   5.990
 3113SOL    HW212451   3.135   5.460   6.118
 3113SOL     MW12452   3.141   5.521   6.055
 3114SOL     OW12453   4.044   5.071   4.079
 3114SOL    HW112454   4.138   5.051   4.069
 3114SOL    HW212455   4.041   5.166   4.082
 3114SOL     MW12456   4.056   5.080   4.078
 3115SOL     OW12457   2.954   4.086   0.485
 3115SOL    HW112458   2.963   4.033   0.404
 3115SOL    HW212459   2.910   4.028   0.546
 3115SOL     MW12460   2.950   4.073   0.482
 3116SOL     OW12461   1.749   0.653   4.047
 3116SOL    HW112462   1.702   0.618   4.123
 3116SOL    HW212463   1.745   0.584   3.982
 3116SOL     MW12464   1.743   0.641   4.048
 3117SOL     OW12465   4.370   4.760   3.145
 3117SOL    HW112466   4.453   4.786   3.104
 3117SOL    HW212467   4.385   4.770   3.238
 3117SOL     MW12468   4.381   4.764   3.151
 3118SOL     OW12469   1.907   1.629   4.688
 3118SOL    HW112470   1.961   1.563   4.643
 3118SOL    HW212471   1.971   1.689   4.726
 3118SOL     MW12472   1.921   1.628   4.687
 3119SOL     OW12473   3.779   1.725   1.788
 3119SOL    HW112474   3.853   1.670   1.816
 3119SOL    HW212475   3.806   1.758   1.703
 3119SOL     MW12476   3.791   1.722   1.781
 3120SOL     OW12477   3.170   4.348   0.068
 3120SOL    HW112478   3.198   4.266   0.026
 3120SOL    HW212479   3.097   4.322   0.122
 3120SOL     MW12480   3.165   4.335   0.070
 3121SOL     OW12481   3.979   5.037   3.550
 3121SOL    HW112482   3.917   4.977   3.507
 3121SOL    HW212483   4.001   5.100   3.483
 3121SOL     MW12484   3.974   5.037   3.537
 3122SOL     OW12485   0.322   2.041   2.064
 3122SOL    HW112486   0.268   2.046   2.143
 3122SOL    HW212487   0.260   2.041   1.992
 3122SOL     MW12488   0.308   2.042   2.065
 3123SOL     OW12489   3.642   4.584   5.078
 3123SOL    HW112490   3.732   4.553   5.087
 3123SOL    HW212491   3.649   4.662   5.024
 3123SOL     MW12492   3.654   4.589   5.073
 3124SOL     OW12493   1.763   4.127   4.927
 3124SOL    HW112494   1.798   4.192   4.865
 3124SOL    HW212495   1.839   4.098   4.976
 3124SOL     MW12496   1.776   4.131   4.925
 3125SOL     OW12497   1.235   3.337   1.972
 3125SOL    HW112498   1.297   3.268   1.998
 3125SOL    HW212499   1.283   3.418   1.985
 3125SOL     MW12500   1.248   3.338   1.976
 3126SOL     OW12501   5.420   0.478   0.483
 3126SOL    HW112502   5.400   0.571   0.465
 3126SOL    HW212503   5.451   0.445   0.400
 3126SOL     MW12504   5.422   0.486   0.471
 3127SOL     OW12505   3.686   1.083   1.378
 3127SOL    HW112506   3.706   1.082   1.472
 3127SOL    HW212507   3.770   1.080   1.335
 3127SOL     MW12508   3.698   1.083   1.384
 3128SOL     OW12509   3.053   2.739   1.752
 3128SOL    HW112510   2.960   2.763   1.758
 3128SOL    HW212511   3.076   2.715   1.841
 3128SOL     MW12512   3.044   2.739   1.763
 3129SOL     OW12513   5.458   3.449   3.987
 3129SOL    HW112514   5.513   3.482   3.915
 3129SOL    HW212515   5.391   3.515   3.997
 3129SOL     MW12516   5.457   3.461   3.980
 3130SOL     OW12517   2.921   2.655   0.723
 3130SOL    HW112518   2.829   2.641   0.696
 3130SOL    HW212519   2.968   2.660   0.641
 3130SOL     MW12520   2.915   2.654   0.710
 3131SOL     OW12521   1.112   1.076   1.245
 3131SOL    HW112522   1.094   1.145   1.181
 3131SOL    HW212523   1.053   1.006   1.222
 3131SOL     MW12524   1.103   1.076   1.235
 3132SOL     OW12525   4.482   2.662  -0.019
 3132SOL    HW112526   4.435   2.639   0.062
 3132SOL    HW212527   4.543   2.591  -0.032
 3132SOL     MW12528   4.483   2.651  -0.010
 3133SOL     OW12529   0.120   1.093   4.290
 3133SOL    HW112530   0.053   1.162   4.279
 3133SOL    HW212531   0.138   1.093   4.383
 3133SOL     MW12532   0.114   1.102   4.300
 3134SOL     OW12533   2.115   3.215   6.072
 3134SOL    HW112534   2.100   3.307   6.050
 3134SOL    HW212535   2.027   3.179   6.081
 3134SOL     MW12536   2.102   3.222   6.070
 3135SOL     OW12537   5.818   0.033   1.811
 3135SOL    HW112538   5.800  -0.060   1.797
 3135SOL    HW212539   5.862   0.035   1.895
 3135SOL     MW12540   5.821   0.022   1.820
 3136SOL     OW12541   5.285   5.834   4.009
 3136SOL    HW112542   5.334   5.763   4.052
 3136SOL    HW212543   5.294   5.815   3.916
 3136SOL     MW12544   5.292   5.823   4.003
 3137SOL     OW12545   0.169   4.895   3.032
 3137SOL    HW112546   0.141   4.958   2.964
 3137SOL    HW212547   0.196   4.818   2.983
 3137SOL     MW12548   0.169   4.894   3.017
 3138SOL     OW12549   2.248   5.252   5.682
 3138SOL    HW112550   2.168   5.288   5.721
 3138SOL    HW212551   2.303   5.328   5.667
 3138SOL     MW12552   2.245   5.266   5.685
 3139SOL     OW12553   2.013   3.992   4.050
 3139SOL    HW112554   2.105   4.018   4.062
 3139SOL    HW212555   1.963   4.063   4.087
 3139SOL     MW12556   2.019   4.004   4.055
 3140SOL     OW12557   0.940   1.071   2.423
 3140SOL    HW112558   1.025   1.115   2.428
 3140SOL    HW212559   0.895   1.116   2.353
 3140SOL     MW12560   0.945   1.081   2.415
 3141SOL     OW12561   1.624   2.849   3.507
 3141SOL    HW112562   1.710   2.818   3.476
 3141SOL    HW212563   1.575   2.866   3.428
 3141SOL     MW12564   1.629   2.847   3.494
 3142SOL     OW12565   5.198   5.825   3.753
 3142SOL    HW112566   5.186   5.911   3.711
 3142SOL    HW212567   5.155   5.833   3.837
 3142SOL     MW12568   5.192   5.836   3.758
 3143SOL     OW12569   5.492   4.607   0.702
 3143SOL    HW112570   5.480   4.519   0.741
 3143SOL    HW212571   5.489   4.591   0.609
 3143SOL     MW12572   5.490   4.594   0.696
 3144SOL     OW12573   1.277   2.004   3.411
 3144SOL    HW112574   1.185   2.014   3.384
 3144SOL    HW212575   1.272   1.961   3.495
 3144SOL     MW12576   1.265   2.000   3.418
 3145SOL     OW12577   5.203   1.287   3.197
 3145SOL    HW112578   5.186   1.382   3.192
 3145SOL    HW212579   5.283   1.280   3.248
 3145SOL     MW12580   5.211   1.298   3.202
 3146SOL     OW12581   1.431   6.082   5.883
 3146SOL    HW112582   1.347   6.038   5.900
 3146SOL    HW212583   1.415   6.173   5.905
 3146SOL     MW12584   1.419   6.088   5.888
 3147SOL     OW12585   4.209   0.689   1.225
 3147SOL    HW112586   4.129   0.711   1.274
 3147SOL    HW212587   4.193   0.602   1.192
 3147SOL     MW12588   4.198   0.681   1.227
 3148SOL     OW12589   3.063   2.317   2.447
 3148SOL    HW112590   3.076   2.404   2.407
 3148SOL    HW212591   2.978   2.289   2.415
 3148SOL     MW12592   3.055   2.324   2.438
 3149SOL     OW12593   3.267   2.083   0.925
 3149SOL    HW112594   3.339   2.020   0.911
 3149SOL    HW212595   3.311   2.166   0.937
 3149SOL     MW12596   3.281   2.085   0.925
 3150SOL     OW12597   4.557   4.558   3.338
 3150SOL    HW112598   4.523   4.473   3.310
 3150SOL    HW212599   4.561   4.551   3.433
 3150SOL     MW12600   4.554   4.547   3.346
 3151SOL     OW12601   2.451   0.233   2.968
 3151SOL    HW112602   2.527   0.282   2.934
 3151SOL    HW212603   2.443   0.262   3.058
 3151SOL     MW12604   2.459   0.243   2.975
 3152SOL     OW12605   5.884   0.393   0.543
 3152SOL    HW112606   5.819   0.322   0.536
 3152SOL    HW212607   5.878   0.439   0.460
 3152SOL     MW12608   5.875   0.390   0.532
 3153SOL     OW12609   5.094   4.336   3.123
 3153SOL    HW112610   5.182   4.298   3.112
 3153SOL    HW212611   5.066   4.356   3.035
 3153SOL     MW12612   5.102   4.334   3.112
 3154SOL     OW12613   3.490   0.483   2.362
 3154SOL    HW112614   3.397   0.456   2.366
 3154SOL    HW212615   3.497   0.552   2.426
 3154SOL     MW12616   3.479   0.488   2.370
 3155SOL     OW12617   0.744   3.220   4.542
 3155SOL    HW112618   0.741   3.311   4.575
 3155SOL    HW212619   0.836   3.207   4.522
 3155SOL     MW12620   0.755   3.230   4.544
 3156SOL     OW12621   2.386   1.680   1.821
 3156SOL    HW112622   2.402   1.758   1.876
 3156SOL    HW212623   2.305   1.645   1.855
 3156SOL     MW12624   2.378   1.685   1.832
 3157SOL     OW12625   2.324   0.993   4.449
 3157SOL    HW112626   2.334   1.067   4.388
 3157SOL    HW212627   2.305   1.034   4.532
 3157SOL     MW12628   2.323   1.007   4.451
 3158SOL     OW12629   3.249   6.068   4.996
 3158SOL    HW112630   3.295   6.149   5.019
 3158SOL    HW212631   3.157   6.091   5.001
 3158SOL     MW12632   3.244   6.080   5.000
 3159SOL     OW12633   0.249   0.209   4.105
 3159SOL    HW112634   0.281   0.118   4.106
 3159SOL    HW212635   0.235   0.230   4.196
 3159SOL     MW12636   0.251   0.200   4.116
 3160SOL     OW12637   1.269   2.269   4.103
 3160SOL    HW112638   1.354   2.302   4.073
 3160SOL    HW212639   1.280   2.259   4.197
 3160SOL     MW12640   1.280   2.272   4.110
 3161SOL     OW12641   1.210   3.460   5.450
 3161SOL    HW112642   1.216   3.400   5.524
 3161SOL    HW212643   1.256   3.416   5.380
 3161SOL     MW12644   1.216   3.448   5.451
 3162SOL     OW12645   0.132   2.152   5.861
 3162SOL    HW112646   0.081   2.215   5.808
 3162SOL    HW212647   0.076   2.076   5.866
 3162SOL     MW12648   0.119   2.151   5.855
 3163SOL     OW12649   0.272   2.053   1.176
 3163SOL    HW112650   0.325   1.973   1.183
 3163SOL    HW212651   0.266   2.068   1.083
 3163SOL     MW12652   0.278   2.045   1.166
 3164SOL     OW12653   0.916   5.978   3.643
 3164SOL    HW112654   0.840   5.945   3.595
 3164SOL    HW212655   0.892   5.969   3.734
 3164SOL     MW12656   0.904   5.973   3.648
 3165SOL     OW12657   5.549   4.192   5.289
 3165SOL    HW112658   5.603   4.260   5.330
 3165SOL    HW212659   5.514   4.233   5.211
 3165SOL     MW12660   5.551   4.205   5.285
 3166SOL     OW12661   2.836   1.887   3.291
 3166SOL    HW112662   2.892   1.920   3.362
 3166SOL    HW212663   2.768   1.953   3.283
 3166SOL     MW12664   2.835   1.899   3.299
 3167SOL     OW12665   2.307   3.676   3.861
 3167SOL    HW112666   2.381   3.721   3.902
 3167SOL    HW212667   2.289   3.603   3.918
 3167SOL     MW12668   2.314   3.673   3.872
 3168SOL     OW12669   2.950   4.838   2.302
 3168SOL    HW112670   2.959   4.768   2.237
 3168SOL    HW212671   2.959   4.918   2.253
 3168SOL     MW12672   2.952   4.839   2.288
 3169SOL     OW12673   4.820   3.223   4.785
 3169SOL    HW112674   4.903   3.251   4.826
 3169SOL    HW212675   4.756   3.232   4.854
 3169SOL     MW12676   4.823   3.228   4.798
 3170SOL     OW12677   0.169   2.549   2.266
 3170SOL    HW112678   0.159   2.486   2.194
 3170SOL    HW212679   0.173   2.494   2.344
 3170SOL     MW12680   0.169   2.534   2.266
 3171SOL     OW12681   4.255   3.521   1.784
 3171SOL    HW112682   4.315   3.533   1.710
 3171SOL    HW212683   4.284   3.585   1.848
 3171SOL     MW12684   4.266   3.530   1.783
 3172SOL     OW12685   3.600   4.867   1.496
 3172SOL    HW112686   3.621   4.796   1.557
 3172SOL    HW212687   3.607   4.946   1.549
 3172SOL     MW12688   3.603   4.868   1.510
 3173SOL     OW12689   4.330   4.253   3.033
 3173SOL    HW112690   4.387   4.293   2.966
 3173SOL    HW212691   4.371   4.169   3.050
 3173SOL     MW12692   4.342   4.248   3.027
 3174SOL     OW12693   4.426   4.614   5.444
 3174SOL    HW112694   4.378   4.541   5.403
 3174SOL    HW212695   4.379   4.630   5.525
 3174SOL     MW12696   4.415   4.607   5.449
 3175SOL     OW12697   1.066   3.310   0.614
 3175SOL    HW112698   1.125   3.350   0.551
 3175SOL    HW212699   1.047   3.379   0.676
 3175SOL     MW12700   1.071   3.323   0.614
 3176SOL     OW12701   5.762   3.549   0.760
 3176SOL    HW112702   5.677   3.522   0.796
 3176SOL    HW212703   5.743   3.569   0.669
 3176SOL     MW12704   5.749   3.548   0.754
 3177SOL     OW12705   5.229   2.600   4.062
 3177SOL    HW112706   5.182   2.642   4.135
 3177SOL    HW212707   5.180   2.627   3.985
 3177SOL     MW12708   5.217   2.609   4.062
 3178SOL     OW12709   1.668   1.566   0.531
 3178SOL    HW112710   1.597   1.605   0.582
 3178SOL    HW212711   1.645   1.582   0.441
 3178SOL     MW12712   1.657   1.573   0.527
 3179SOL     OW12713   3.812   0.684   4.405
 3179SOL    HW112714   3.782   0.762   4.453
 3179SOL    HW212715   3.861   0.635   4.469
 3179SOL     MW12716   3.814   0.688   4.418
 3180SOL     OW12717   5.371   1.756   1.935
 3180SOL    HW112718   5.447   1.807   1.907
 3180SOL    HW212719   5.397   1.718   2.018
 3180SOL     MW12720   5.383   1.758   1.942
 3181SOL     OW12721   0.370   0.178   2.188
 3181SOL    HW112722   0.377   0.219   2.275
 3181SOL    HW212723   0.383   0.250   2.127
 3181SOL     MW12724   0.373   0.191   2.192
 3182SOL     OW12725   6.126   4.610   2.629
 3182SOL    HW112726   6.054   4.670   2.650
 3182SOL    HW212727   6.100   4.527   2.667
 3182SOL     MW12728   6.114   4.608   2.636
 3183SOL     OW12729   1.604   1.377   5.825
 3183SOL    HW112730   1.571   1.445   5.884
 3183SOL    HW212731   1.604   1.417   5.739
 3183SOL     MW12732   1.600   1.390   5.822
 3184SOL     OW12733   3.069   3.787   3.911
 3184SOL    HW112734   3.145   3.836   3.946
 3184SOL    HW212735   3.071   3.806   3.818
 3184SOL     MW12736   3.079   3.795   3.904
 3185SOL     OW12737   4.771   4.053   3.902
 3185SOL    HW112738   4.699   4.084   3.846
 3185SOL    HW212739   4.764   3.958   3.899
 3185SOL     MW12740   4.761   4.045   3.895
 3186SOL     OW12741   5.085   0.831   2.307
 3186SOL    HW112742   5.152   0.772   2.344
 3186SOL    HW212743   5.071   0.896   2.375
 3186SOL     MW12744   5.092   0.832   2.320
 3187SOL     OW12745   1.964   2.632   3.423
 3187SOL    HW112746   2.025   2.578   3.371
 3187SOL    HW212747   1.901   2.569   3.457
 3187SOL     MW12748   1.964   2.618   3.421
 3188SOL     OW12749   5.615   0.417   6.008
 3188SOL    HW112750   5.524   0.443   6.027
 3188SOL    HW212751   5.665   0.497   6.019
 3188SOL     MW12752   5.610   0.430   6.012
 3189SOL     OW12753   2.652   6.071   4.965
 3189SOL    HW112754   2.635   6.143   4.904
 3189SOL    HW212755   2.577   6.071   5.023
 3189SOL     MW12756   2.641   6.080   4.964
 3190SOL     OW12757   5.654   4.210   0.269
 3190SOL    HW112758   5.696   4.281   0.220
 3190SOL    HW212759   5.671   4.231   0.359
 3190SOL     MW12760   5.661   4.221   0.273
 3191SOL     OW12761   0.345   1.973   1.661
 3191SOL    HW112762   0.386   2.010   1.582
 3191SOL    HW212763   0.410   1.988   1.729
 3191SOL     MW12764   0.358   1.979   1.659
 3192SOL     OW12765   1.799   4.897   2.135
 3192SOL    HW112766   1.828   4.958   2.204
 3192SOL    HW212767   1.777   4.818   2.182
 3192SOL     MW12768   1.800   4.895   2.149
 3193SOL     OW12769   4.902   5.471   3.309
 3193SOL    HW112770   4.915   5.389   3.357
 3193SOL    HW212771   4.829   5.453   3.251
 3193SOL     MW12772   4.895   5.459   3.308
 3194SOL     OW12773   1.542   0.757   0.696
 3194SOL    HW112774   1.490   0.784   0.772
 3194SOL    HW212775   1.632   0.765   0.724
 3194SOL     MW12776   1.546   0.761   0.708
 3195SOL     OW12777   3.869   4.119   4.317
 3195SOL    HW112778   3.800   4.185   4.309
 3195SOL    HW212779   3.918   4.146   4.393
 3195SOL     MW12780   3.867   4.130   4.325
 3196SOL     OW12781   4.178   0.457   0.488
 3196SOL    HW112782   4.236   0.381   0.472
 3196SOL    HW212783   4.226   0.531   0.453
 3196SOL     MW12784   4.191   0.456   0.482
 3197SOL     OW12785   3.743   3.764   0.523
 3197SOL    HW112786   3.669   3.715   0.561
 3197SOL    HW212787   3.769   3.712   0.448
 3197SOL     MW12788   3.737   3.752   0.519
 3198SOL     OW12789   5.174   2.042   5.451
 3198SOL    HW112790   5.178   2.102   5.376
 3198SOL    HW212791   5.082   2.023   5.461
 3198SOL     MW12792   5.164   2.047   5.443
 3199SOL     OW12793   5.873   5.878   1.961
 3199SOL    HW112794   5.885   5.880   1.866
 3199SOL    HW212795   5.779   5.877   1.973
 3199SOL     MW12796   5.864   5.878   1.951
 3200SOL     OW12797   2.607   4.847   2.503
 3200SOL    HW112798   2.682   4.805   2.548
 3200SOL    HW212799   2.581   4.784   2.437
 3200SOL     MW12800   2.613   4.834   2.501
 3201SOL     OW12801   1.024   0.435   4.717
 3201SOL    HW112802   1.044   0.343   4.698
 3201SOL    HW212803   0.944   0.432   4.767
 3201SOL     MW12804   1.017   0.423   4.720
 3202SOL     OW12805   3.194   2.882   4.995
 3202SOL    HW112806   3.228   2.865   4.907
 3202SOL    HW212807   3.271   2.902   5.046
 3202SOL     MW12808   3.208   2.882   4.990
 3203SOL     OW12809   5.698   4.778   2.701
 3203SOL    HW112810   5.711   4.693   2.744
 3203SOL    HW212811   5.685   4.757   2.610
 3203SOL     MW12812   5.698   4.766   2.696
 3204SOL     OW12813   5.940   1.881   1.092
 3204SOL    HW112814   5.956   1.972   1.066
 3204SOL    HW212815   6.021   1.854   1.136
 3204SOL     MW12816   5.952   1.889   1.094
 3205SOL     OW12817   3.429   4.170   0.433
 3205SOL    HW112818   3.390   4.082   0.434
 3205SOL    HW212819   3.468   4.177   0.347
 3205SOL     MW12820   3.428   4.160   0.423
 3206SOL     OW12821   4.004   1.494   3.346
 3206SOL    HW112822   3.934   1.439   3.309
 3206SOL    HW212823   4.017   1.459   3.433
 3206SOL     MW12824   3.997   1.483   3.352
 3207SOL     OW12825   2.220   6.052   5.701
 3207SOL    HW112826   2.221   5.958   5.723
 3207SOL    HW212827   2.228   6.096   5.785
 3207SOL     MW12828   2.221   6.046   5.714
 3208SOL     OW12829   0.311   5.300   4.920
 3208SOL    HW112830   0.353   5.373   4.967
 3208SOL    HW212831   0.247   5.267   4.981
 3208SOL     MW12832   0.308   5.305   4.933
 3209SOL     OW12833   2.111   4.772   2.927
 3209SOL    HW112834   2.103   4.685   2.887
 3209SOL    HW212835   2.162   4.822   2.864
 3209SOL     MW12836   2.116   4.767   2.914
 3210SOL     OW12837   1.423   5.049   1.893
 3210SOL    HW112838   1.381   4.962   1.891
 3210SOL    HW212839   1.362   5.103   1.941
 3210SOL     MW12840   1.410   5.045   1.898
 3211SOL     OW12841   3.271   3.225   0.641
 3211SOL    HW112842   3.244   3.133   0.636
 3211SOL    HW212843   3.207   3.265   0.699
 3211SOL     MW12844   3.260   3.219   0.648
 3212SOL     OW12845   0.117   1.170   5.320
 3212SOL    HW112846   0.022   1.178   5.330
 3212SOL    HW212847   0.128   1.095   5.262
 3212SOL     MW12848   0.107   1.162   5.314
 3213SOL     OW12849   5.077   1.978   2.914
 3213SOL    HW112850   4.995   2.007   2.874
 3213SOL    HW212851   5.063   1.987   3.007
 3213SOL     MW12852   5.065   1.982   2.920
 3214SOL     OW12853   2.419   0.406   4.512
 3214SOL    HW112854   2.328   0.381   4.492
 3214SOL    HW212855   2.448   0.340   4.574
 3214SOL     MW12856   2.411   0.395   4.517
 3215SOL     OW12857   2.401   4.081   1.281
 3215SOL    HW112858   2.318   4.037   1.301
 3215SOL    HW212859   2.375   4.162   1.240
 3215SOL     MW12860   2.388   4.085   1.279
 3216SOL     OW12861   1.488   3.058   2.687
 3216SOL    HW112862   1.522   3.148   2.685
 3216SOL    HW212863   1.408   3.065   2.738
 3216SOL     MW12864   1.483   3.070   2.692
 3217SOL     OW12865   0.936   6.072   4.666
 3217SOL    HW112866   0.947   6.015   4.589
 3217SOL    HW212867   0.966   6.019   4.739
 3217SOL     MW12868   0.941   6.059   4.665
 3218SOL     OW12869   2.321   3.463   1.729
 3218SOL    HW112870   2.239   3.483   1.774
 3218SOL    HW212871   2.301   3.476   1.637
 3218SOL     MW12872   2.309   3.467   1.723
 3219SOL     OW12873   4.901   4.157   2.538
 3219SOL    HW112874   4.969   4.108   2.490
 3219SOL    HW212875   4.843   4.189   2.470
 3219SOL     MW12876   4.902   4.154   2.524
 3220SOL     OW12877   1.173   1.242   4.128
 3220SOL    HW112878   1.255   1.274   4.168
 3220SOL    HW212879   1.182   1.264   4.036
 3220SOL     MW12880   1.184   1.249   4.122
 3221SOL     OW12881   2.633   1.743   5.913
 3221SOL    HW112882   2.550   1.746   5.863
 3221SOL    HW212883   2.605   1.745   6.004
 3221SOL     MW12884   2.619   1.744   5.918
 3222SOL     OW12885   1.028   3.613   3.711
 3222SOL    HW112886   1.075   3.694   3.737
 3222SOL    HW212887   0.949   3.645   3.669
 3222SOL     MW12888   1.025   3.627   3.709
 3223SOL     OW12889   2.134   1.793   2.501
 3223SOL    HW112890   2.157   1.700   2.505
 3223SOL    HW212891   2.163   1.820   2.415
 3223SOL     MW12892   2.140   1.785   2.491
 3224SOL     OW12893   2.051   0.675   2.162
 3224SOL    HW112894   2.059   0.712   2.250
 3224SOL    HW212895   2.135   0.694   2.121
 3224SOL     MW12896   2.062   0.681   2.168
 3225SOL     OW12897   3.854   0.280  -0.006
 3225SOL    HW112898   3.828   0.363  -0.047
 3225SOL    HW212899   3.836   0.293   0.086
 3225SOL     MW12900   3.848   0.292  -0.000
 3226SOL     OW12901   0.493   0.387   5.518
 3226SOL    HW112902   0.588   0.380   5.505
 3226SOL    HW212903   0.484   0.410   5.609
 3226SOL     MW12904   0.504   0.389   5.527
 3227SOL     OW12905   3.271   2.168   4.578
 3227SOL    HW112906   3.362   2.140   4.590
 3227SOL    HW212907   3.254   2.224   4.653
 3227SOL     MW12908   3.280   2.172   4.589
 3228SOL     OW12909   0.511   0.203   5.514
 3228SOL    HW112910   0.428   0.182   5.557
 3228SOL    HW212911   0.576   0.152   5.561
 3228SOL     MW12912   0.509   0.195   5.525
 3229SOL     OW12913   5.785   1.511   2.574
 3229SOL    HW112914   5.757   1.462   2.652
 3229SOL    HW212915   5.840   1.450   2.527
 3229SOL     MW12916   5.788   1.498   2.578
 3230SOL     OW12917   3.280   3.065   0.210
 3230SOL    HW112918   3.257   3.057   0.116
 3230SOL    HW212919   3.344   2.997   0.224
 3230SOL     MW12920   3.285   3.056   0.200
 3231SOL     OW12921   5.130   0.626   3.478
 3231SOL    HW112922   5.095   0.586   3.558
 3231SOL    HW212923   5.117   0.560   3.412
 3231SOL     MW12924   5.124   0.613   3.480
 3232SOL     OW12925   2.743   1.122   5.103
 3232SOL    HW112926   2.725   1.033   5.069
 3232SOL    HW212927   2.762   1.108   5.195
 3232SOL     MW12928   2.743   1.109   5.110
 3233SOL     OW12929   5.456   1.133   0.989
 3233SOL    HW112930   5.541   1.172   0.969
 3233SOL    HW212931   5.477   1.047   1.022
 3233SOL     MW12932   5.469   1.128   0.991
 3234SOL     OW12933   5.158   5.710   2.777
 3234SOL    HW112934   5.165   5.777   2.846
 3234SOL    HW212935   5.159   5.759   2.696
 3234SOL     MW12936   5.159   5.724   2.776
 3235SOL     OW12937   1.099   3.413   1.624
 3235SOL    HW112938   1.132   3.322   1.621
 3235SOL    HW212939   1.166   3.461   1.670
 3235SOL     MW12940   1.111   3.407   1.629
 3236SOL     OW12941   2.492   4.499   3.860
 3236SOL    HW112942   2.577   4.526   3.823
 3236SOL    HW212943   2.510   4.490   3.953
 3236SOL     MW12944   2.505   4.502   3.867
 3237SOL     OW12945   3.798   4.711   0.809
 3237SOL    HW112946   3.730   4.655   0.770
 3237SOL    HW212947   3.790   4.694   0.903
 3237SOL     MW12948   3.789   4.702   0.816
 3238SOL     OW12949   0.069   3.788   0.803
 3238SOL    HW112950   0.132   3.811   0.734
 3238SOL    HW212951   0.112   3.719   0.852
 3238SOL     MW12952   0.082   3.783   0.801
 3239SOL     OW12953   3.737   2.860   1.702
 3239SOL    HW112954   3.802   2.919   1.742
 3239SOL    HW212955   3.740   2.783   1.758
 3239SOL     MW12956   3.745   2.858   1.714
 3240SOL     OW12957   0.648   3.158   2.435
 3240SOL    HW112958   0.711   3.091   2.405
 3240SOL    HW212959   0.674   3.174   2.525
 3240SOL     MW12960   0.659   3.152   2.442
 3241SOL     OW12961   1.880   2.480   1.880
 3241SOL    HW112962   1.928   2.542   1.936
 3241SOL    HW212963   1.918   2.492   1.794
 3241SOL     MW12964   1.890   2.489   1.877
 3242SOL     OW12965   0.374   4.058   1.684
 3242SOL    HW112966   0.469   4.063   1.691
 3242SOL    HW212967   0.350   4.135   1.634
 3242SOL     MW12968   0.382   4.067   1.679
 3243SOL     OW12969   4.833  -0.017   0.331
 3243SOL    HW112970   4.790  -0.000   0.246
 3243SOL    HW212971   4.802   0.052   0.387
 3243SOL     MW12972   4.824  -0.007   0.327
 3244SOL     OW12973   3.010   0.212   3.116
 3244SOL    HW112974   2.939   0.273   3.138
 3244SOL    HW212975   2.971   0.153   3.053
 3244SOL     MW12976   2.997   0.213   3.111
 3245SOL     OW12977   5.154   4.751   2.803
 3245SOL    HW112978   5.208   4.771   2.726
 3245SOL    HW212979   5.118   4.665   2.785
 3245SOL     MW12980   5.156   4.743   2.792
 3246SOL     OW12981   5.014   2.847   4.970
 3246SOL    HW112982   5.006   2.940   4.996
 3246SOL    HW212983   5.068   2.849   4.893
 3246SOL     MW12984   5.019   2.859   4.964
 3247SOL     OW12985   0.121   1.872   1.404
 3247SOL    HW112986   0.124   1.820   1.323
 3247SOL    HW212987   0.084   1.813   1.468
 3247SOL     MW12988   0.117   1.859   1.402
 3248SOL     OW12989   4.838   5.755   4.803
 3248SOL    HW112990   4.801   5.673   4.837
 3248SOL    HW212991   4.874   5.798   4.879
 3248SOL     MW12992   4.838   5.750   4.816
 3249SOL     OW12993   4.647   0.726   1.304
 3249SOL    HW112994   4.654   0.822   1.310
 3249SOL    HW212995   4.583   0.703   1.370
 3249SOL     MW12996   4.640   0.735   1.312
 3250SOL     OW12997   1.240   4.860   2.283
 3250SOL    HW112998   1.248   4.771   2.318
 3250SOL    HW212999   1.223   4.848   2.191
 3250SOL     MW13000   1.239   4.848   2.277
 3251SOL     OW13001   4.629   5.035   3.823
 3251SOL    HW113002   4.724   5.016   3.820
 3251SOL    HW213003   4.616   5.100   3.756
 3251SOL     MW13004   4.639   5.040   3.815
 3252SOL     OW13005   1.652   2.644   5.080
 3252SOL    HW113006   1.733   2.621   5.034
 3252SOL    HW213007   1.654   2.590   5.159
 3252SOL     MW13008   1.662   2.635   5.084
 3253SOL     OW13009   1.410   0.692   3.946
 3253SOL    HW113010   1.436   0.674   3.855
 3253SOL    HW213011   1.431   0.612   3.993
 3253SOL     MW13012   1.415   0.680   3.940
 3254SOL     OW13013   0.331   2.406   0.934
 3254SOL    HW113014   0.415   2.431   0.975
 3254SOL    HW213015   0.357   2.361   0.855
 3254SOL     MW13016   0.344   2.404   0.930
 3255SOL     OW13017   5.172   4.282   1.284
 3255SOL    HW113018   5.113   4.355   1.263
 3255SOL    HW213019   5.210   4.258   1.200
 3255SOL     MW13020   5.169   4.288   1.272
 3256SOL     OW13021   0.914   1.343   2.010
 3256SOL    HW113022   0.888   1.300   1.928
 3256SOL    HW213023   0.870   1.292   2.078
 3256SOL     MW13024   0.905   1.331   2.008
 3257SOL     OW13025   0.568   1.971   5.385
 3257SOL    HW113026   0.624   1.911   5.334
 3257SOL    HW213027   0.576   1.939   5.474
 3257SOL     MW13028   0.576   1.960   5.389
 3258SOL     OW13029   2.271   3.569   3.078
 3258SOL    HW113030   2.317   3.494   3.039
 3258SOL    HW213031   2.193   3.530   3.117
 3258SOL     MW13032   2.267   3.555   3.078
 3259SOL     OW13033   3.889   2.932   2.899
 3259SOL    HW113034   3.974   2.897   2.871
 3259SOL    HW213035   3.909   3.016   2.938
 3259SOL     MW13036   3.901   2.938   2.900
 3260SOL     OW13037   1.740   3.069   2.070
 3260SOL    HW113038   1.706   3.016   1.997
 3260SOL    HW213039   1.834   3.062   2.062
 3260SOL     MW13040   1.747   3.062   2.060
 3261SOL     OW13041   3.004   1.585   5.402
 3261SOL    HW113042   3.044   1.666   5.370
 3261SOL    HW213043   3.045   1.517   5.351
 3261SOL     MW13044   3.014   1.587   5.392
 3262SOL     OW13045   1.756   4.402   5.658
 3262SOL    HW113046   1.778   4.482   5.610
 3262SOL    HW213047   1.761   4.427   5.750
 3262SOL     MW13048   1.759   4.415   5.663
 3263SOL     OW13049   1.245   1.717   5.791
 3263SOL    HW113050   1.287   1.782   5.734
 3263SOL    HW213051   1.208   1.767   5.862
 3263SOL     MW13052   1.246   1.731   5.793
 3264SOL     OW13053   4.122   0.940   0.338
 3264SOL    HW113054   4.036   0.906   0.364
 3264SOL    HW213055   4.105   0.984   0.255
 3264SOL     MW13056   4.109   0.941   0.331
 3265SOL     OW13057   5.603   0.996   0.745
 3265SOL    HW113058   5.544   0.991   0.821
 3265SOL    HW213059   5.603   0.908   0.709
 3265SOL     MW13060   5.596   0.985   0.750
 3266SOL     OW13061   4.027   5.320   0.744
 3266SOL    HW113062   3.978   5.262   0.685
 3266SOL    HW213063   4.051   5.394   0.689
 3266SOL     MW13064   4.024   5.322   0.730
 3267SOL     OW13065   0.432   3.642   3.774
 3267SOL    HW113066   0.349   3.690   3.777
 3267SOL    HW213067   0.480   3.684   3.703
 3267SOL     MW13068   0.428   3.653   3.766
 3268SOL     OW13069   2.635   3.485   1.296
 3268SOL    HW113070   2.557   3.473   1.242
 3268SOL    HW213071   2.688   3.547   1.248
 3268SOL     MW13072   2.632   3.491   1.284
 3269SOL     OW13073   3.541   0.705   5.649
 3269SOL    HW113074   3.470   0.642   5.633
 3269SOL    HW213075   3.571   0.684   5.737
 3269SOL     MW13076   3.536   0.694   5.658
 3270SOL     OW13077   0.938   1.428   1.045
 3270SOL    HW113078   1.005   1.488   1.010
 3270SOL    HW213079   0.934   1.448   1.138
 3270SOL     MW13080   0.945   1.438   1.052
 3271SOL     OW13081   4.145   5.663   2.053
 3271SOL    HW113082   4.180   5.748   2.026
 3271SOL    HW213083   4.184   5.647   2.138
 3271SOL     MW13084   4.154   5.671   2.060
 3272SOL     OW13085   1.639   4.463   0.262
 3272SOL    HW113086   1.544   4.476   0.273
 3272SOL    HW213087   1.677   4.546   0.288
 3272SOL     MW13088   1.632   4.474   0.266
 3273SOL     OW13089   3.998   4.052   1.781
 3273SOL    HW113090   4.043   4.030   1.863
 3273SOL    HW213091   3.908   4.069   1.807
 3273SOL     MW13092   3.992   4.051   1.794
 3274SOL     OW13093   4.692   5.493   5.937
 3274SOL    HW113094   4.668   5.560   5.872
 3274SOL    HW213095   4.703   5.542   6.018
 3274SOL     MW13096   4.691   5.507   5.939
 3275SOL     OW13097   0.433   2.515   4.903
 3275SOL    HW113098   0.375   2.557   4.839
 3275SOL    HW213099   0.511   2.494   4.853
 3275SOL     MW13100   0.435   2.518   4.889
 3276SOL     OW13101   2.393   0.177   4.775
 3276SOL    HW113102   2.363   0.091   4.809
 3276SOL    HW213103   2.408   0.162   4.683
 3276SOL     MW13104   2.391   0.165   4.769
 3277SOL     OW13105   5.076   0.103   3.428
 3277SOL    HW113106   4.980   0.103   3.431
 3277SOL    HW213107   5.099   0.011   3.427
 3277SOL     MW13108   5.067   0.092   3.429
 3278SOL     OW13109   5.109   1.451   3.058
 3278SOL    HW113110   5.083   1.385   2.993
 3278SOL    HW213111   5.027   1.478   3.097
 3278SOL     MW13112   5.096   1.446   3.055
 3279SOL     OW13113   0.089   4.890   5.505
 3279SOL    HW113114   0.035   4.938   5.441
 3279SOL    HW213115   0.035   4.887   5.583
 3279SOL     MW13116   0.076   4.896   5.506
 3280SOL     OW13117   0.717   4.693   5.500
 3280SOL    HW113118   0.705   4.764   5.564
 3280SOL    HW213119   0.811   4.687   5.489
 3280SOL     MW13120   0.727   4.701   5.507
 3281SOL     OW13121   3.889   1.500   2.079
 3281SOL    HW113122   3.887   1.578   2.022
 3281SOL    HW213123   3.902   1.535   2.166
 3281SOL     MW13124   3.890   1.514   2.082
 3282SOL     OW13125   1.669   0.216   2.859
 3282SOL    HW113126   1.716   0.285   2.812
 3282SOL    HW213127   1.725   0.140   2.851
 3282SOL     MW13128   1.681   0.215   2.852
 3283SOL     OW13129   2.778   4.608   1.223
 3283SOL    HW113130   2.864   4.634   1.256
 3283SOL    HW213131   2.720   4.614   1.298
 3283SOL     MW13132   2.781   4.612   1.236
 3284SOL     OW13133   1.148   1.896   4.652
 3284SOL    HW113134   1.188   1.823   4.604
 3284SOL    HW213135   1.192   1.897   4.736
 3284SOL     MW13136   1.158   1.887   4.656
 3285SOL     OW13137   0.614   1.448   0.730
 3285SOL    HW113138   0.709   1.440   0.743
 3285SOL    HW213139   0.604   1.449   0.636
 3285SOL     MW13140   0.625   1.447   0.720
 3286SOL     OW13141   0.830   2.029   1.157
 3286SOL    HW113142   0.879   1.948   1.171
 3286SOL    HW213143   0.847   2.051   1.067
 3286SOL     MW13144   0.838   2.022   1.148
 3287SOL     OW13145   0.551   2.364   4.329
 3287SOL    HW113146   0.643   2.347   4.309
 3287SOL    HW213147   0.530   2.442   4.279
 3287SOL     MW13148   0.560   2.371   4.321
 3288SOL     OW13149   5.851   1.298   5.941
 3288SOL    HW113150   5.797   1.218   5.933
 3288SOL    HW213151   5.814   1.358   5.878
 3288SOL     MW13152   5.840   1.295   5.933
 3289SOL     OW13153   5.591   0.170   1.314
 3289SOL    HW113154   5.658   0.104   1.335
 3289SOL    HW213155   5.593   0.176   1.219
 3289SOL     MW13156   5.599   0.163   1.305
 3290SOL     OW13157   1.490   3.608   5.781
 3290SOL    HW113158   1.570   3.640   5.823
 3290SOL    HW213159   1.475   3.668   5.710
 3290SOL     MW13160   1.498   3.619   5.778
 3291SOL     OW13161   2.419   0.569   5.863
 3291SOL    HW113162   2.379   0.587   5.948
 3291SOL    HW213163   2.498   0.621   5.862
 3291SOL     MW13164   2.424   0.577   5.873
 3292SOL     OW13165   2.353   1.088   3.430
 3292SOL    HW113166   2.277   1.146   3.437
 3292SOL    HW213167   2.333   1.016   3.488
 3292SOL     MW13168   2.341   1.087   3.438
 3293SOL     OW13169   5.520   4.651   2.461
 3293SOL    HW113170   5.577   4.653   2.538
 3293SOL    HW213171   5.538   4.733   2.417
 3293SOL     MW13172   5.529   4.661   2.465
 3294SOL     OW13173   0.576   3.629   5.504
 3294SOL    HW113174   0.622   3.668   5.579
 3294SOL    HW213175   0.554   3.704   5.450
 3294SOL     MW13176   0.579   3.643   5.507
 3295SOL     OW13177   5.940   4.088   5.001
 3295SOL    HW113178   5.993   4.010   5.021
 3295SOL    HW213179   6.003   4.149   4.964
 3295SOL     MW13180   5.954   4.086   4.999
 3296SOL     OW13181   3.223   2.131   5.893
 3296SOL    HW113182   3.168   2.073   5.946
 3296SOL    HW213183   3.168   2.154   5.819
 3296SOL     MW13184   3.210   2.127   5.891
 3297SOL     OW13185   4.786   3.471   1.110
 3297SOL    HW113186   4.867   3.507   1.073
 3297SOL    HW213187   4.806   3.457   1.201
 3297SOL     MW13188   4.798   3.473   1.116
 3298SOL     OW13189   1.287   2.643   2.416
 3298SOL    HW113190   1.374   2.630   2.378
 3298SOL    HW213191   1.302   2.644   2.510
 3298SOL     MW13192   1.299   2.642   2.422
 3299SOL     OW13193   4.969   1.472   3.373
 3299SOL    HW113194   5.052   1.462   3.421
 3299SOL    HW213195   4.951   1.565   3.376
 3299SOL     MW13196   4.977   1.482   3.379
 3300SOL     OW13197   2.470   2.957   0.538
 3300SOL    HW113198   2.387   2.924   0.504
 3300SOL    HW213199   2.449   2.990   0.624
 3300SOL     MW13200   2.458   2.957   0.544
 3301SOL     OW13201   5.971   2.504   2.304
 3301SOL    HW113202   5.958   2.544   2.390
 3301SOL    HW213203   5.883   2.499   2.267
 3301SOL     MW13204   5.959   2.508   2.310
 3302SOL     OW13205   2.436   4.226   4.740
 3302SOL    HW113206   2.509   4.212   4.678
 3302SOL    HW213207   2.478   4.261   4.817
 3302SOL     MW13208   2.450   4.228   4.741
 3303SOL     OW13209   4.269   0.199   4.954
 3303SOL    HW113210   4.318   0.133   5.004
 3303SOL    HW213211   4.291   0.181   4.864
 3303SOL     MW13212   4.277   0.189   4.950
 3304SOL     OW13213   2.357   3.753   0.750
 3304SOL    HW113214   2.453   3.763   0.751
 3304SOL    HW213215   2.339   3.707   0.669
 3304SOL     MW13216   2.366   3.749   0.740
 3305SOL     OW13217   5.922   3.802   0.552
 3305SOL    HW113218   5.999   3.856   0.533
 3305SOL    HW213219   5.856   3.864   0.577
 3305SOL     MW13220   5.924   3.816   0.552
 3306SOL     OW13221   3.201   0.814   1.256
 3306SOL    HW113222   3.279   0.842   1.304
 3306SOL    HW213223   3.230   0.806   1.166
 3306SOL     MW13224   3.214   0.816   1.251
 3307SOL     OW13225   3.312   3.846   1.681
 3307SOL    HW113226   3.356   3.771   1.639
 3307SOL    HW213227   3.347   3.921   1.636
 3307SOL     MW13228   3.322   3.846   1.671
 3308SOL     OW13229   3.222   5.098   1.356
 3308SOL    HW113230   3.215   5.035   1.428
 3308SOL    HW213231   3.294   5.155   1.380
 3308SOL     MW13232   3.230   5.097   1.367
 3309SOL     OW13233   0.982   1.971   1.462
 3309SOL    HW113234   0.917   2.032   1.425
 3309SOL    HW213235   0.965   1.974   1.556
 3309SOL     MW13236   0.972   1.979   1.469
 3310SOL     OW13237   0.899   3.360   0.425
 3310SOL    HW113238   0.916   3.360   0.330
 3310SOL    HW213239   0.981   3.389   0.463
 3310SOL     MW13240   0.911   3.363   0.418
 3311SOL     OW13241   1.938   3.477   3.917
 3311SOL    HW113242   1.842   3.472   3.913
 3311SOL    HW213243   1.957   3.494   4.008
 3311SOL     MW13244   1.929   3.479   3.927
 3312SOL     OW13245   4.415   2.751   3.351
 3312SOL    HW113246   4.457   2.675   3.392
 3312SOL    HW213247   4.415   2.817   3.419
 3312SOL     MW13248   4.420   2.750   3.364
 3313SOL     OW13249   1.248   5.828   5.826
 3313SOL    HW113250   1.294   5.865   5.749
 3313SOL    HW213251   1.257   5.895   5.892
 3313SOL     MW13252   1.255   5.840   5.824
 3314SOL     OW13253   4.553   5.472   1.095
 3314SOL    HW113254   4.529   5.559   1.061
 3314SOL    HW213255   4.604   5.490   1.173
 3314SOL     MW13256   4.556   5.484   1.100
 3315SOL     OW13257   2.683   6.011   0.969
 3315SOL    HW113258   2.764   6.060   0.951
 3315SOL    HW213259   2.645   6.055   1.044
 3315SOL     MW13260   2.688   6.022   0.976
 3316SOL     OW13261   2.784   3.419   1.647
 3316SOL    HW113262   2.717   3.371   1.697
 3316SOL    HW213263   2.749   3.506   1.638
 3316SOL     MW13264   2.772   3.423   1.652
 3317SOL     OW13265   0.842   1.712   3.549
 3317SOL    HW113266   0.751   1.698   3.579
 3317SOL    HW213267   0.843   1.676   3.461
 3317SOL     MW13268   0.831   1.706   3.542
 3318SOL     OW13269   4.678   2.997   1.933
 3318SOL    HW113270   4.685   2.901   1.943
 3318SOL    HW213271   4.611   3.022   1.995
 3318SOL     MW13272   4.671   2.988   1.942
 3319SOL     OW13273   0.434   4.130   4.479
 3319SOL    HW113274   0.463   4.213   4.518
 3319SOL    HW213275   0.442   4.144   4.386
 3319SOL     MW13276   0.438   4.142   4.473
 3320SOL     OW13277   2.600   5.636   2.999
 3320SOL    HW113278   2.524   5.586   2.967
 3320SOL    HW213279   2.563   5.693   3.065
 3320SOL     MW13280   2.586   5.637   3.003
 3321SOL     OW13281   1.160   3.510   5.032
 3321SOL    HW113282   1.198   3.436   4.986
 3321SOL    HW213283   1.113   3.558   4.965
 3321SOL     MW13284   1.159   3.507   5.019
 3322SOL     OW13285   1.688   2.015   0.386
 3322SOL    HW113286   1.605   2.063   0.384
 3322SOL    HW213287   1.746   2.067   0.331
 3322SOL     MW13288   1.685   2.027   0.379
 3323SOL     OW13289   3.712   2.462   0.832
 3323SOL    HW113290   3.718   2.557   0.821
 3323SOL    HW213291   3.722   2.448   0.925
 3323SOL     MW13292   3.714   2.472   0.842
 3324SOL     OW13293   3.925   2.930   6.080
 3324SOL    HW113294   3.933   2.845   6.034
 3324SOL    HW213295   3.883   2.908   6.162
 3324SOL     MW13296   3.921   2.917   6.084
 3325SOL     OW13297   0.915   1.143   2.975
 3325SOL    HW113298   0.976   1.165   3.046
 3325SOL    HW213299   0.880   1.059   3.000
 3325SOL     MW13300   0.919   1.136   2.987
 3326SOL     OW13301   3.448   0.625   4.741
 3326SOL    HW113302   3.459   0.531   4.759
 3326SOL    HW213303   3.418   0.628   4.651
 3326SOL     MW13304   3.446   0.613   4.733
 3327SOL     OW13305   4.372   5.977   2.486
 3327SOL    HW113306   4.338   5.888   2.473
 3327SOL    HW213307   4.395   6.007   2.399
 3327SOL     MW13308   4.370   5.970   2.474
 3328SOL     OW13309   3.981   4.403   1.674
 3328SOL    HW113310   4.043   4.368   1.609
 3328SOL    HW213311   3.915   4.446   1.621
 3328SOL     MW13312   3.981   4.404   1.660
 3329SOL     OW13313   2.347   3.543   5.830
 3329SOL    HW113314   2.313   3.549   5.740
 3329SOL    HW213315   2.396   3.463   5.831
 3329SOL     MW13316   2.348   3.535   5.819
 3330SOL     OW13317   2.154   2.454   2.814
 3330SOL    HW113318   2.075   2.434   2.864
 3330SOL    HW213319   2.126   2.453   2.723
 3330SOL     MW13320   2.141   2.452   2.809
 3331SOL     OW13321   4.609   1.172   1.236
 3331SOL    HW113322   4.690   1.149   1.282
 3331SOL    HW213323   4.605   1.267   1.244
 3331SOL     MW13324   4.618   1.181   1.243
 3332SOL     OW13325   1.463   3.304   1.402
 3332SOL    HW113326   1.389   3.294   1.342
 3332SOL    HW213327   1.434   3.264   1.483
 3332SOL     MW13328   1.451   3.298   1.404
 3333SOL     OW13329   1.153   3.897   3.805
 3333SOL    HW113330   1.086   3.965   3.819
 3333SOL    HW213331   1.235   3.945   3.804
 3333SOL     MW13332   1.154   3.911   3.807
 3334SOL     OW13333   1.779   4.422   0.669
 3334SOL    HW113334   1.829   4.485   0.723
 3334SOL    HW213335   1.754   4.473   0.593
 3334SOL     MW13336   1.782   4.436   0.667
 3335SOL     OW13337   6.018   0.999   3.417
 3335SOL    HW113338   6.018   0.979   3.323
 3335SOL    HW213339   5.986   1.089   3.422
 3335SOL     MW13340   6.014   1.008   3.406
 3336SOL     OW13341   5.133   3.034   0.652
 3336SOL    HW113342   5.096   3.105   0.599
 3336SOL    HW213343   5.133   3.069   0.740
 3336SOL     MW13344   5.128   3.047   0.656
 3337SOL     OW13345   1.887   2.753   2.413
 3337SOL    HW113346   1.979   2.724   2.414
 3337SOL    HW213347   1.886   2.831   2.466
 3337SOL     MW13348   1.898   2.758   2.419
 3338SOL     OW13349   1.708   2.296   0.002
 3338SOL    HW113350   1.686   2.339   0.086
 3338SOL    HW213351   1.735   2.367  -0.054
 3338SOL     MW13352   1.709   2.309   0.006
 3339SOL     OW13353   5.803   3.002   5.595
 3339SOL    HW113354   5.804   2.909   5.619
 3339SOL    HW213355   5.725   3.036   5.637
 3339SOL     MW13356   5.794   2.995   5.603
 3340SOL     OW13357   5.313   3.864   2.159
 3340SOL    HW113358   5.236   3.875   2.102
 3340SOL    HW213359   5.294   3.919   2.234
 3340SOL     MW13360   5.301   3.872   2.161
 3341SOL     OW13361   4.743   1.064   2.784
 3341SOL    HW113362   4.809   1.001   2.756
 3341SOL    HW213363   4.722   1.038   2.873
 3341SOL     MW13364   4.748   1.053   2.791
 3342SOL     OW13365   4.770   5.336   1.107
 3342SOL    HW113366   4.701   5.388   1.065
 3342SOL    HW213367   4.752   5.343   1.200
 3342SOL     MW13368   4.760   5.343   1.113
 3343SOL     OW13369   4.699   2.374   3.573
 3343SOL    HW113370   4.694   2.470   3.575
 3343SOL    HW213371   4.625   2.347   3.520
 3343SOL     MW13372   4.690   2.383   3.567
 3344SOL     OW13373   0.691   3.736   2.781
 3344SOL    HW113374   0.652   3.775   2.859
 3344SOL    HW213375   0.688   3.643   2.796
 3344SOL     MW13376   0.686   3.730   2.792
 3345SOL     OW13377   0.533   2.317   1.778
 3345SOL    HW113378   0.524   2.235   1.729
 3345SOL    HW213379   0.486   2.301   1.859
 3345SOL     MW13380   0.527   2.305   1.782
 3346SOL     OW13381   5.459   3.905   3.090
 3346SOL    HW113382   5.395   3.845   3.050
 3346SOL    HW213383   5.415   3.989   3.089
 3346SOL     MW13384   5.446   3.908   3.085
 3347SOL     OW13385   3.839   5.265   2.189
 3347SOL    HW113386   3.765   5.294   2.136
 3347SOL    HW213387   3.831   5.315   2.269
 3347SOL     MW13388   3.829   5.274   2.192
 3348SOL     OW13389   3.860   3.334   1.693
 3348SOL    HW113390   3.773   3.299   1.669
 3348SOL    HW213391   3.916   3.310   1.620
 3348SOL     MW13392   3.856   3.327   1.681
 3349SOL     OW13393   4.087   3.192   3.498
 3349SOL    HW113394   4.137   3.116   3.530
 3349SOL    HW213395   4.070   3.243   3.577
 3349SOL     MW13396   4.091   3.189   3.511
 3350SOL     OW13397   2.850   1.009   5.937
 3350SOL    HW113398   2.918   0.963   5.986
 3350SOL    HW213399   2.867   0.987   5.846
 3350SOL     MW13400   2.860   1.001   5.932
 3351SOL     OW13401   4.300   2.885   3.994
 3351SOL    HW113402   4.335   2.970   3.967
 3351SOL    HW213403   4.312   2.883   4.088
 3351SOL     MW13404   4.306   2.895   4.001
 3352SOL     OW13405   1.406   5.972   5.499
 3352SOL    HW113406   1.475   6.034   5.474
 3352SOL    HW213407   1.432   5.890   5.461
 3352SOL     MW13408   1.417   5.970   5.492
 3353SOL     OW13409   2.146   0.803   4.469
 3353SOL    HW113410   2.120   0.885   4.427
 3353SOL    HW213411   2.168   0.745   4.396
 3353SOL     MW13412   2.145   0.806   4.455
 3354SOL     OW13413   0.982   5.774   5.322
 3354SOL    HW113414   0.949   5.753   5.409
 3354SOL    HW213415   1.070   5.808   5.337
 3354SOL     MW13416   0.989   5.776   5.334
 3355SOL     OW13417   2.946   5.381   6.051
 3355SOL    HW113418   3.012   5.422   5.994
 3355SOL    HW213419   2.865   5.422   6.026
 3355SOL     MW13420   2.945   5.391   6.041
 3356SOL     OW13421   1.868   3.863   4.984
 3356SOL    HW113422   1.909   3.880   4.899
 3356SOL    HW213423   1.940   3.838   5.041
 3356SOL     MW13424   1.881   3.862   4.980
 3357SOL     OW13425   1.221   2.784   4.770
 3357SOL    HW113426   1.301   2.797   4.823
 3357SOL    HW213427   1.251   2.734   4.695
 3357SOL     MW13428   1.235   2.780   4.767
 3358SOL     OW13429   1.702   2.730   0.709
 3358SOL    HW113430   1.765   2.657   0.699
 3358SOL    HW213431   1.618   2.690   0.689
 3358SOL     MW13432   1.700   2.716   0.705
 3359SOL     OW13433   3.711   0.937   5.605
 3359SOL    HW113434   3.787   0.994   5.621
 3359SOL    HW213435   3.715   0.919   5.512
 3359SOL     MW13436   3.721   0.942   5.596
 3360SOL     OW13437   1.306   0.499   2.546
 3360SOL    HW113438   1.396   0.480   2.518
 3360SOL    HW213439   1.278   0.419   2.589
 3360SOL     MW13440   1.314   0.487   2.548
 3361SOL     OW13441   1.901   5.783   0.404
 3361SOL    HW113442   1.813   5.770   0.367
 3361SOL    HW213443   1.904   5.724   0.479
 3361SOL     MW13444   1.891   5.774   0.408
 3362SOL     OW13445   2.712   2.604   4.809
 3362SOL    HW113446   2.667   2.569   4.731
 3362SOL    HW213447   2.679   2.550   4.880
 3362SOL     MW13448   2.702   2.593   4.808
 3363SOL     OW13449   2.195   4.719   0.852
 3363SOL    HW113450   2.214   4.712   0.758
 3363SOL    HW213451   2.227   4.637   0.888
 3363SOL     MW13452   2.201   4.708   0.845
 3364SOL     OW13453   5.794   4.707   4.950
 3364SOL    HW113454   5.788   4.728   5.044
 3364SOL    HW213455   5.821   4.616   4.948
 3364SOL     MW13456   5.797   4.699   4.961
 3365SOL     OW13457   6.105   5.976   0.061
 3365SOL    HW113458   6.078   5.886   0.039
 3365SOL    HW213459   6.044   6.004   0.127
 3365SOL     MW13460   6.095   5.968   0.066
 3366SOL     OW13461   5.394   0.734   5.874
 3366SOL    HW113462   5.321   0.702   5.928
 3366SOL    HW213463   5.413   0.820   5.910
 3366SOL     MW13464   5.387   0.740   5.885
 3367SOL     OW13465   0.775   4.567   2.744
 3367SOL    HW113466   0.826   4.486   2.742
 3367SOL    HW213467   0.724   4.561   2.823
 3367SOL     MW13468   0.776   4.556   2.753
 3368SOL     OW13469   1.066   0.276   3.455
 3368SOL    HW113470   1.137   0.334   3.426
 3368SOL    HW213471   1.096   0.243   3.539
 3368SOL     MW13472   1.079   0.279   3.461
 3369SOL     OW13473   5.874   1.250   3.000
 3369SOL    HW113474   5.892   1.295   3.083
 3369SOL    HW213475   5.959   1.242   2.959
 3369SOL     MW13476   5.886   1.254   3.005
 3370SOL     OW13477   5.036   1.182   2.488
 3370SOL    HW113478   5.005   1.220   2.404
 3370SOL    HW213479   5.112   1.235   2.510
 3370SOL     MW13480   5.041   1.193   2.480
 3371SOL     OW13481   0.245   0.029   4.742
 3371SOL    HW113482   0.217   0.030   4.834
 3371SOL    HW213483   0.165   0.012   4.693
 3371SOL     MW13484   0.232   0.027   4.747
 3372SOL     OW13485   5.524   1.753   0.163
 3372SOL    HW113486   5.610   1.729   0.198
 3372SOL    HW213487   5.534   1.744   0.069
 3372SOL     MW13488   5.535   1.749   0.156
 3373SOL     OW13489   5.573   5.907   4.770
 3373SOL    HW113490   5.644   5.915   4.834
 3373SOL    HW213491   5.602   5.839   4.710
 3373SOL     MW13492   5.585   5.899   4.771
 3374SOL     OW13493   3.490   0.040   4.483
 3374SOL    HW113494   3.568   0.086   4.452
 3374SOL    HW213495   3.521  -0.016   4.553
 3374SOL     MW13496   3.503   0.039   4.487
 3375SOL     OW13497   0.662   4.871   2.228
 3375SOL    HW113498   0.717   4.950   2.235
 3375SOL    HW213499   0.622   4.878   2.142
 3375SOL     MW13500   0.664   4.881   2.218
 3376SOL     OW13501   2.348   4.133   4.596
 3376SOL    HW113502   2.296   4.088   4.664
 3376SOL    HW213503   2.369   4.065   4.534
 3376SOL     MW13504   2.344   4.120   4.597
 3377SOL     OW13505   0.466   1.355   2.018
 3377SOL    HW113506   0.415   1.431   2.048
 3377SOL    HW213507   0.548   1.362   2.065
 3377SOL     MW13508   0.469   1.365   2.027
 3378SOL     OW13509   1.815   5.208   4.950
 3378SOL    HW113510   1.737   5.257   4.921
 3378SOL    HW213511   1.784   5.158   5.024
 3378SOL     MW13512   1.802   5.208   4.955
 3379SOL     OW13513   1.564   1.178   2.466
 3379SOL    HW113514   1.477   1.205   2.436
 3379SOL    HW213515   1.568   1.207   2.557
 3379SOL     MW13516   1.554   1.185   2.473
 3380SOL     OW13517   1.422   4.426   3.013
 3380SOL    HW113518   1.346   4.389   3.058
 3380SOL    HW213519   1.403   4.412   2.921
 3380SOL     MW13520   1.411   4.420   3.007
 3381SOL     OW13521   0.416   0.565   4.916
 3381SOL    HW113522   0.461   0.639   4.958
 3381SOL    HW213523   0.420   0.586   4.823
 3381SOL     MW13524   0.422   0.576   4.910
 3382SOL     OW13525   4.208   5.304   2.522
 3382SOL    HW113526   4.122   5.263   2.535
 3382SOL    HW213527   4.217   5.363   2.597
 3382SOL     MW13528   4.199   5.306   2.533
 3383SOL     OW13529   5.375   1.579   2.470
 3383SOL    HW113530   5.309   1.633   2.514
 3383SOL    HW213531   5.356   1.490   2.499
 3383SOL     MW13532   5.365   1.575   2.479
 3384SOL     OW13533   4.767   1.692   3.021
 3384SOL    HW113534   4.795   1.715   2.932
 3384SOL    HW213535   4.728   1.773   3.054
 3384SOL     MW13536   4.766   1.705   3.014
 3385SOL     OW13537   2.100   4.460   1.567
 3385SOL    HW113538   2.068   4.548   1.588
 3385SOL    HW213539   2.162   4.474   1.496
 3385SOL     MW13540   2.104   4.472   1.561
 3386SOL     OW13541   0.317   3.940   3.941
 3386SOL    HW113542   0.322   4.035   3.930
 3386SOL    HW213543   0.339   3.926   4.033
 3386SOL     MW13544   0.320   3.950   3.951
 3387SOL     OW13545   5.689   5.503   3.685
 3387SOL    HW113546   5.599   5.479   3.707
 3387SOL    HW213547   5.686   5.521   3.592
 3387SOL     MW13548   5.678   5.502   3.676
 3388SOL     OW13549   1.985   2.750   0.179
 3388SOL    HW113550   1.891   2.753   0.156
 3388SOL    HW213551   2.022   2.685   0.120
 3388SOL     MW13552   1.978   2.743   0.169
 3389SOL     OW13553   1.122   1.017   2.339
 3389SOL    HW113554   1.184   1.085   2.367
 3389SOL    HW213555   1.125   1.019   2.245
 3389SOL     MW13556   1.130   1.025   2.332
 3390SOL     OW13557   1.091   3.879  -0.008
 3390SOL    HW113558   1.045   3.911   0.070
 3390SOL    HW213559   1.066   3.788  -0.015
 3390SOL     MW13560   1.082   3.872   0.000
 3391SOL     OW13561   0.877   3.383   1.553
 3391SOL    HW113562   0.818   3.383   1.476
 3391SOL    HW213563   0.947   3.440   1.527
 3391SOL     MW13564   0.878   3.389   1.540
 3392SOL     OW13565   3.305   5.659   4.144
 3392SOL    HW113566   3.396   5.665   4.114
 3392SOL    HW213567   3.311   5.649   4.238
 3392SOL     MW13568   3.317   5.659   4.151
 3393SOL     OW13569   3.119   5.732   3.305
 3393SOL    HW113570   3.137   5.796   3.235
 3393SOL    HW213571   3.045   5.769   3.351
 3393SOL     MW13572   3.112   5.745   3.302
 3394SOL     OW13573   2.083   5.088   2.431
 3394SOL    HW113574   2.049   5.092   2.341
 3394SOL    HW213575   2.176   5.074   2.420
 3394SOL     MW13576   2.090   5.087   2.419
 3395SOL     OW13577   1.360   3.979   2.761
 3395SOL    HW113578   1.308   3.900   2.741
 3395SOL    HW213579   1.421   3.950   2.828
 3395SOL     MW13580   1.361   3.966   2.766
 3396SOL     OW13581   3.696   2.655   5.324
 3396SOL    HW113582   3.611   2.642   5.280
 3396SOL    HW213583   3.681   2.624   5.413
 3396SOL     MW13584   3.684   2.650   5.329
 3397SOL     OW13585   1.127   2.858   2.462
 3397SOL    HW113586   1.177   2.882   2.383
 3397SOL    HW213587   1.113   2.764   2.453
 3397SOL     MW13588   1.132   2.850   2.451
 3398SOL     OW13589   2.574   1.815   5.438
 3398SOL    HW113590   2.664   1.802   5.471
 3398SOL    HW213591   2.577   1.780   5.350
 3398SOL     MW13592   2.585   1.809   5.431
 3399SOL     OW13593   4.569   1.574   1.607
 3399SOL    HW113594   4.504   1.639   1.638
 3399SOL    HW213595   4.516   1.501   1.578
 3399SOL     MW13596   4.554   1.574   1.607
 3400SOL     OW13597   0.745   4.433   5.127
 3400SOL    HW113598   0.734   4.379   5.206
 3400SOL    HW213599   0.728   4.522   5.156
 3400SOL     MW13600   0.742   4.437   5.140
 3401SOL     OW13601   2.841   2.278   1.712
 3401SOL    HW113602   2.791   2.219   1.655
 3401SOL    HW213603   2.859   2.353   1.658
 3401SOL     MW13604   2.837   2.280   1.699
 3402SOL     OW13605   5.228   3.924   3.914
 3402SOL    HW113606   5.257   3.989   3.848
 3402SOL    HW213607   5.198   3.850   3.862
 3402SOL     MW13608   5.228   3.923   3.900
 3403SOL     OW13609   5.085   1.344   1.159
 3403SOL    HW113610   4.999   1.348   1.201
 3403SOL    HW213611   5.145   1.323   1.229
 3403SOL     MW13612   5.082   1.342   1.172
 3404SOL     OW13613   3.351   5.874   0.800
 3404SOL    HW113614   3.342   5.969   0.797
 3404SOL    HW213615   3.363   5.848   0.710
 3404SOL     MW13616   3.351   5.882   0.789
 3405SOL     OW13617   1.669   4.228   4.395
 3405SOL    HW113618   1.701   4.311   4.359
 3405SOL    HW213619   1.667   4.243   4.489
 3405SOL     MW13620   1.672   4.240   4.402
 3406SOL     OW13621   3.407   2.869   0.816
 3406SOL    HW113622   3.491   2.905   0.846
 3406SOL    HW213623   3.380   2.926   0.746
 3406SOL     MW13624   3.414   2.880   0.811
 3407SOL     OW13625   4.958   4.992   0.276
 3407SOL    HW113626   5.035   4.942   0.245
 3407SOL    HW213627   4.988   5.033   0.357
 3407SOL     MW13628   4.971   4.990   0.282
 3408SOL     OW13629   0.187   5.475   3.565
 3408SOL    HW113630   0.225   5.466   3.653
 3408SOL    HW213631   0.143   5.559   3.567
 3408SOL     MW13632   0.187   5.483   3.576
 3409SOL     OW13633   2.805   5.885   2.288
 3409SOL    HW113634   2.841   5.820   2.349
 3409SOL    HW213635   2.879   5.908   2.233
 3409SOL     MW13636   2.818   5.880   2.289
 3410SOL     OW13637   5.819   3.847   5.153
 3410SOL    HW113638   5.767   3.878   5.078
 3410SOL    HW213639   5.777   3.766   5.178
 3410SOL     MW13640   5.808   3.842   5.147
 3411SOL     OW13641   0.874   2.237   5.633
 3411SOL    HW113642   0.786   2.208   5.658
 3411SOL    HW213643   0.926   2.158   5.635
 3411SOL     MW13644   0.869   2.224   5.636
 3412SOL     OW13645   5.176   2.960   3.662
 3412SOL    HW113646   5.087   2.994   3.675
 3412SOL    HW213647   5.189   2.964   3.568
 3412SOL     MW13648   5.166   2.965   3.652
 3413SOL     OW13649   2.182   2.653   1.342
 3413SOL    HW113650   2.157   2.691   1.427
 3413SOL    HW213651   2.104   2.608   1.313
 3413SOL     MW13652   2.170   2.652   1.349
 3414SOL     OW13653   4.358   1.210   1.450
 3414SOL    HW113654   4.350   1.264   1.529
 3414SOL    HW213655   4.301   1.252   1.387
 3414SOL     MW13656   4.350   1.221   1.452
 3415SOL     OW13657   0.559   4.699   2.116
 3415SOL    HW113658   0.618   4.642   2.165
 3415SOL    HW213659   0.520   4.755   2.182
 3415SOL     MW13660   0.561   4.699   2.130
 3416SOL     OW13661   4.444   5.316   0.134
 3416SOL    HW113662   4.515   5.343   0.074
 3416SOL    HW213663   4.421   5.229   0.105
 3416SOL     MW13664   4.450   5.309   0.123
 3417SOL     OW13665   5.425   4.449   3.868
 3417SOL    HW113666   5.341   4.403   3.868
 3417SOL    HW213667   5.403   4.541   3.865
 3417SOL     MW13668   5.412   4.454   3.868
 3418SOL     OW13669   0.576   2.345   3.045
 3418SOL    HW113670   0.487   2.312   3.060
 3418SOL    HW213671   0.576   2.431   3.086
 3418SOL     MW13672   0.565   2.351   3.052
 3419SOL     OW13673   1.808   3.600   5.307
 3419SOL    HW113674   1.772   3.666   5.366
 3419SOL    HW213675   1.809   3.643   5.222
 3419SOL     MW13676   1.804   3.613   5.304
 3420SOL     OW13677   4.938   2.550   1.167
 3420SOL    HW113678   4.842   2.549   1.174
 3420SOL    HW213679   4.954   2.580   1.078
 3420SOL     MW13680   4.928   2.553   1.157
 3421SOL     OW13681   0.904   3.717   1.097
 3421SOL    HW113682   0.915   3.638   1.042
 3421SOL    HW213683   0.868   3.782   1.038
 3421SOL     MW13684   0.901   3.715   1.084
 3422SOL     OW13685   2.006   1.640   2.670
 3422SOL    HW113686   2.037   1.708   2.609
 3422SOL    HW213687   1.944   1.686   2.726
 3422SOL     MW13688   2.002   1.654   2.670
 3423SOL     OW13689   3.210   0.956   0.824
 3423SOL    HW113690   3.157   0.908   0.888
 3423SOL    HW213691   3.146   0.989   0.762
 3423SOL     MW13692   3.196   0.954   0.824
 3424SOL     OW13693   5.176   4.029   2.821
 3424SOL    HW113694   5.124   3.997   2.896
 3424SOL    HW213695   5.116   4.023   2.747
 3424SOL     MW13696   5.162   4.024   2.821
 3425SOL     OW13697   0.613   0.210   2.896
 3425SOL    HW113698   0.581   0.226   2.985
 3425SOL    HW213699   0.558   0.140   2.863
 3425SOL     MW13700   0.603   0.203   2.903
 3426SOL     OW13701   0.665   3.664   3.296
 3426SOL    HW113702   0.710   3.655   3.211
 3426SOL    HW213703   0.574   3.679   3.272
 3426SOL     MW13704   0.660   3.665   3.283
 3427SOL     OW13705   3.547   1.708   1.559
 3427SOL    HW113706   3.641   1.690   1.572
 3427SOL    HW213707   3.515   1.724   1.647
 3427SOL     MW13708   3.555   1.707   1.571
 3428SOL     OW13709   4.517   5.169   5.472
 3428SOL    HW113710   4.524   5.083   5.429
 3428SOL    HW213711   4.495   5.229   5.403
 3428SOL     MW13712   4.515   5.166   5.459
 3429SOL     OW13713   1.866   2.862   4.149
 3429SOL    HW113714   1.959   2.836   4.140
 3429SOL    HW213715   1.863   2.906   4.233
 3429SOL     MW13716   1.877   2.864   4.158
 3430SOL     OW13717   3.300   4.283   1.501
 3430SOL    HW113718   3.290   4.196   1.539
 3430SOL    HW213719   3.389   4.308   1.524
 3430SOL     MW13720   3.310   4.275   1.508
 3431SOL     OW13721   3.977   2.558   3.912
 3431SOL    HW113722   3.889   2.571   3.875
 3431SOL    HW213723   3.960   2.520   3.998
 3431SOL     MW13724   3.964   2.555   3.918
 3432SOL     OW13725   5.693   3.354   4.203
 3432SOL    HW113726   5.756   3.328   4.135
 3432SOL    HW213727   5.739   3.419   4.254
 3432SOL     MW13728   5.706   3.359   4.200
 3433SOL     OW13729   2.943   0.684   1.264
 3433SOL    HW113730   2.972   0.775   1.273
 3433SOL    HW213731   2.857   0.691   1.223
 3433SOL     MW13732   2.936   0.696   1.260
 3434SOL     OW13733   5.190   2.330   4.553
 3434SOL    HW113734   5.283   2.354   4.541
 3434SOL    HW213735   5.189   2.236   4.540
 3434SOL     MW13736   5.202   2.322   4.550
 3435SOL     OW13737   4.110   2.991   4.451
 3435SOL    HW113738   4.015   3.005   4.459
 3435SOL    HW213739   4.134   2.949   4.533
 3435SOL     MW13740   4.101   2.988   4.462
 3436SOL     OW13741   3.004   3.192   5.370
 3436SOL    HW113742   3.018   3.151   5.456
 3436SOL    HW213743   2.925   3.242   5.380
 3436SOL     MW13744   2.997   3.193   5.381
 3437SOL     OW13745   0.598   1.052   4.478
 3437SOL    HW113746   0.516   1.100   4.465
 3437SOL    HW213747   0.663   1.120   4.491
 3437SOL     MW13748   0.596   1.066   4.478
 3438SOL     OW13749   1.391   3.816   4.830
 3438SOL    HW113750   1.480   3.783   4.846
 3438SOL    HW213751   1.364   3.852   4.913
 3438SOL     MW13752   1.399   3.816   4.842
 3439SOL     OW13753   2.921   5.515   3.333
 3439SOL    HW113754   2.838   5.560   3.352
 3439SOL    HW213755   2.927   5.447   3.399
 3439SOL     MW13756   2.911   5.512   3.343
 3440SOL     OW13757   3.030   1.984   4.788
 3440SOL    HW113758   3.115   1.959   4.750
 3440SOL    HW213759   2.986   2.032   4.718
 3440SOL     MW13760   3.035   1.987   4.775
 3441SOL     OW13761   5.984   1.922   0.341
 3441SOL    HW113762   5.938   1.845   0.376
 3441SOL    HW213763   6.023   1.892   0.260
 3441SOL     MW13764   5.983   1.909   0.336
 3442SOL     OW13765   4.695   4.684   5.547
 3442SOL    HW113766   4.786   4.667   5.576
 3442SOL    HW213767   4.680   4.621   5.478
 3442SOL     MW13768   4.705   4.675   5.542
 3443SOL     OW13769   3.637   2.213   3.126
 3443SOL    HW113770   3.669   2.162   3.050
 3443SOL    HW213771   3.543   2.220   3.112
 3443SOL     MW13772   3.630   2.207   3.115
 3444SOL     OW13773   4.258   2.464   4.183
 3444SOL    HW113774   4.228   2.553   4.204
 3444SOL    HW213775   4.198   2.434   4.116
 3444SOL     MW13776   4.247   2.472   4.178
 3445SOL     OW13777   4.346   1.471   1.734
 3445SOL    HW113778   4.304   1.432   1.811
 3445SOL    HW213779   4.352   1.400   1.672
 3445SOL     MW13780   4.342   1.458   1.736
 3446SOL     OW13781   3.090   0.648   0.872
 3446SOL    HW113782   3.097   0.736   0.834
 3446SOL    HW213783   3.095   0.662   0.966
 3446SOL     MW13784   3.092   0.660   0.879
 3447SOL     OW13785   3.200   3.538   0.966
 3447SOL    HW113786   3.218   3.446   0.946
 3447SOL    HW213787   3.195   3.540   1.061
 3447SOL     MW13788   3.202   3.527   0.975
 3448SOL     OW13789   0.924   2.357   0.502
 3448SOL    HW113790   0.926   2.364   0.406
 3448SOL    HW213791   0.845   2.401   0.527
 3448SOL     MW13792   0.915   2.363   0.493
 3449SOL     OW13793   6.002   1.924   1.468
 3449SOL    HW113794   5.945   1.847   1.465
 3449SOL    HW213795   5.948   1.991   1.509
 3449SOL     MW13796   5.989   1.923   1.473
 3450SOL     OW13797   2.039   5.796   5.446
 3450SOL    HW113798   2.079   5.871   5.400
 3450SOL    HW213799   2.109   5.732   5.450
 3450SOL     MW13800   2.052   5.797   5.441
 3451SOL     OW13801   4.364   3.846   5.945
 3451SOL    HW113802   4.397   3.796   5.869
 3451SOL    HW213803   4.376   3.787   6.018
 3451SOL     MW13804   4.369   3.833   5.944
 3452SOL     OW13805   5.275   0.361   0.353
 3452SOL    HW113806   5.276   0.272   0.391
 3452SOL    HW213807   5.188   0.393   0.373
 3452SOL     MW13808   5.265   0.354   0.360
 3453SOL     OW13809   4.498   0.877   2.484
 3453SOL    HW113810   4.510   0.930   2.405
 3453SOL    HW213811   4.520   0.789   2.456
 3453SOL     MW13812   4.502   0.873   2.471
 3454SOL     OW13813   5.124   0.304   5.274
 3454SOL    HW113814   5.175   0.226   5.249
 3454SOL    HW213815   5.034   0.282   5.252
 3454SOL     MW13816   5.119   0.292   5.268
 3455SOL     OW13817   2.781   1.323   2.529
 3455SOL    HW113818   2.742   1.237   2.550
 3455SOL    HW213819   2.762   1.335   2.437
 3455SOL     MW13820   2.774   1.314   2.521
 3456SOL     OW13821   1.728   1.922   4.858
 3456SOL    HW113822   1.680   1.882   4.930
 3456SOL    HW213823   1.680   1.896   4.780
 3456SOL     MW13824   1.717   1.914   4.857
 3457SOL     OW13825   4.441   5.637   5.422
 3457SOL    HW113826   4.535   5.637   5.444
 3457SOL    HW213827   4.414   5.547   5.436
 3457SOL     MW13828   4.449   5.626   5.427
 3458SOL     OW13829   0.626   0.531   3.536
 3458SOL    HW113830   0.651   0.611   3.489
 3458SOL    HW213831   0.653   0.547   3.626
 3458SOL     MW13832   0.632   0.543   3.541
 3459SOL     OW13833   3.462   3.179   1.799
 3459SOL    HW113834   3.483   3.086   1.787
 3459SOL    HW213835   3.520   3.207   1.868
 3459SOL     MW13836   3.471   3.171   1.805
 3460SOL     OW13837   2.829   6.058   5.721
 3460SOL    HW113838   2.740   6.057   5.758
 3460SOL    HW213839   2.818   6.090   5.633
 3460SOL     MW13840   2.817   6.061   5.715
 3461SOL     OW13841   5.958   0.016   1.470
 3461SOL    HW113842   6.004   0.019   1.555
 3461SOL    HW213843   5.885   0.076   1.481
 3461SOL     MW13844   5.955   0.023   1.482
 3462SOL     OW13845   4.448   5.449   5.105
 3462SOL    HW113846   4.491   5.518   5.155
 3462SOL    HW213847   4.472   5.468   5.015
 3462SOL     MW13848   4.457   5.459   5.100
 3463SOL     OW13849  -0.023   2.800   6.045
 3463SOL    HW113850   0.067   2.824   6.023
 3463SOL    HW213851  -0.024   2.802   6.140
 3463SOL     MW13852  -0.012   2.803   6.054
 3464SOL     OW13853   2.230   4.907   5.318
 3464SOL    HW113854   2.249   4.843   5.387
 3464SOL    HW213855   2.163   4.866   5.266
 3464SOL     MW13856   2.225   4.894   5.320
 3465SOL     OW13857   4.446   3.755   1.367
 3465SOL    HW113858   4.380   3.710   1.313
 3465SOL    HW213859   4.467   3.833   1.318
 3465SOL     MW13860   4.440   3.759   1.354
 3466SOL     OW13861   1.879   2.481   6.054
 3466SOL    HW113862   1.970   2.468   6.027
 3466SOL    HW213863   1.866   2.575   6.050
 3466SOL     MW13864   1.888   2.490   6.050
 3467SOL     OW13865   4.664   3.832   3.355
 3467SOL    HW113866   4.674   3.927   3.340
 3467SOL    HW213867   4.713   3.793   3.284
 3467SOL     MW13868   4.671   3.839   3.345
 3468SOL     OW13869   2.913   4.992   3.543
 3468SOL    HW113870   2.918   5.004   3.638
 3468SOL    HW213871   2.976   5.054   3.509
 3468SOL     MW13872   2.921   5.001   3.550
 3469SOL     OW13873   0.191   2.303   3.605
 3469SOL    HW113874   0.198   2.208   3.592
 3469SOL    HW213875   0.278   2.328   3.635
 3469SOL     MW13876   0.202   2.294   3.607
 3470SOL     OW13877   0.777   1.480   5.932
 3470SOL    HW113878   0.710   1.536   5.971
 3470SOL    HW213879   0.767   1.494   5.838
 3470SOL     MW13880   0.768   1.488   5.925
 3471SOL     OW13881   4.983   1.404   0.633
 3471SOL    HW113882   5.063   1.354   0.614
 3471SOL    HW213883   4.977   1.405   0.728
 3471SOL     MW13884   4.992   1.398   0.642
 3472SOL     OW13885   1.694   0.554   5.391
 3472SOL    HW113886   1.676   0.642   5.357
 3472SOL    HW213887   1.639   0.546   5.467
 3472SOL     MW13888   1.686   0.563   5.396
 3473SOL     OW13889   5.623   3.664   4.187
 3473SOL    HW113890   5.640   3.729   4.119
 3473SOL    HW213891   5.694   3.601   4.178
 3473SOL     MW13892   5.633   3.664   4.177
 3474SOL     OW13893   5.113   5.065   5.248
 3474SOL    HW113894   5.021   5.085   5.226
 3474SOL    HW213895   5.112   5.049   5.341
 3474SOL     MW13896   5.102   5.066   5.256
 3475SOL     OW13897   1.910   4.796   4.647
 3475SOL    HW113898   1.866   4.852   4.582
 3475SOL    HW213899   1.899   4.842   4.729
 3475SOL     MW13900   1.903   4.808   4.649
 3476SOL     OW13901   2.833   0.407   0.381
 3476SOL    HW113902   2.900   0.347   0.415
 3476SOL    HW213903   2.846   0.407   0.287
 3476SOL     MW13904   2.843   0.400   0.374
 3477SOL     OW13905   3.252   5.742   5.918
 3477SOL    HW113906   3.235   5.836   5.904
 3477SOL    HW213907   3.279   5.736   6.009
 3477SOL     MW13908   3.253   5.753   5.927
 3478SOL     OW13909   1.507   5.121   2.988
 3478SOL    HW113910   1.531   5.091   3.076
 3478SOL    HW213911   1.570   5.079   2.931
 3478SOL     MW13912   1.517   5.112   2.992
 3479SOL     OW13913   3.826   0.859   5.012
 3479SOL    HW113914   3.873   0.833   4.932
 3479SOL    HW213915   3.881   0.826   5.082
 3479SOL     MW13916   3.838   0.852   5.010
 3480SOL     OW13917   2.092   2.523   0.904
 3480SOL    HW113918   2.161   2.459   0.884
 3480SOL    HW213919   2.127   2.573   0.977
 3480SOL     MW13920   2.105   2.521   0.910
 3481SOL     OW13921   3.585   1.739   2.412
 3481SOL    HW113922   3.521   1.793   2.459
 3481SOL    HW213923   3.624   1.798   2.349
 3481SOL     MW13924   3.582   1.753   2.411
 3482SOL     OW13925   2.359   1.685   5.107
 3482SOL    HW113926   2.334   1.758   5.165
 3482SOL    HW213927   2.335   1.715   5.021
 3482SOL     MW13928   2.353   1.698   5.104
 3483SOL     OW13929   3.001   5.003   5.516
 3483SOL    HW113930   2.994   4.912   5.484
 3483SOL    HW213931   3.070   5.041   5.463
 3483SOL     MW13932   3.008   4.996   5.506
 3484SOL     OW13933   0.072   4.570   1.500
 3484SOL    HW113934   0.040   4.501   1.560
 3484SOL    HW213935   0.030   4.550   1.417
 3484SOL     MW13936   0.063   4.559   1.497
 3485SOL     OW13937   4.782   0.879   5.091
 3485SOL    HW113938   4.836   0.856   5.015
 3485SOL    HW213939   4.827   0.953   5.130
 3485SOL     MW13940   4.794   0.885   5.087
 3486SOL     OW13941   1.516   2.881   5.529
 3486SOL    HW113942   1.558   2.959   5.492
 3486SOL    HW213943   1.585   2.835   5.573
 3486SOL     MW13944   1.529   2.886   5.529
 3487SOL     OW13945   5.948   4.479   3.012
 3487SOL    HW113946   5.856   4.505   3.006
 3487SOL    HW213947   5.973   4.504   3.101
 3487SOL     MW13948   5.940   4.485   3.022
 3488SOL     OW13949   5.893   4.506   2.712
 3488SOL    HW113950   5.851   4.440   2.656
 3488SOL    HW213951   5.871   4.478   2.800
 3488SOL     MW13952   5.885   4.495   2.716
 3489SOL     OW13953   3.513   2.635   1.718
 3489SOL    HW113954   3.587   2.642   1.778
 3489SOL    HW213955   3.552   2.641   1.632
 3489SOL     MW13956   3.527   2.636   1.715
 3490SOL     OW13957   0.540   5.883   2.467
 3490SOL    HW113958   0.464   5.863   2.412
 3490SOL    HW213959   0.615   5.869   2.409
 3490SOL     MW13960   0.540   5.879   2.453
 3491SOL     OW13961   0.138   2.299   4.608
 3491SOL    HW113962   0.056   2.349   4.603
 3491SOL    HW213963   0.111   2.213   4.639
 3491SOL     MW13964   0.125   2.295   4.611
 3492SOL     OW13965   0.231   5.883   3.354
 3492SOL    HW113966   0.289   5.932   3.413
 3492SOL    HW213967   0.144   5.913   3.376
 3492SOL     MW13968   0.228   5.893   3.364
 3493SOL     OW13969   0.384   1.428   4.593
 3493SOL    HW113970   0.360   1.418   4.501
 3493SOL    HW213971   0.479   1.431   4.592
 3493SOL     MW13972   0.392   1.427   4.582
 3494SOL     OW13973   0.301   1.167   2.150
 3494SOL    HW113974   0.350   1.243   2.182
 3494SOL    HW213975   0.211   1.186   2.173
 3494SOL     MW13976   0.296   1.178   2.157
 3495SOL     OW13977   2.528   4.526   4.451
 3495SOL    HW113978   2.583   4.604   4.437
 3495SOL    HW213979   2.496   4.504   4.365
 3495SOL     MW13980   2.531   4.533   4.439
 3496SOL     OW13981   5.550   4.037   1.389
 3496SOL    HW113982   5.589   4.107   1.335
 3496SOL    HW213983   5.582   4.056   1.476
 3496SOL     MW13984   5.559   4.048   1.393
 3497SOL     OW13985   0.156   3.605   4.572
 3497SOL    HW113986   0.147   3.624   4.478
 3497SOL    HW213987   0.199   3.683   4.607
 3497SOL     MW13988   0.160   3.617   4.564
 3498SOL     OW13989   1.876   5.781   5.881
 3498SOL    HW113990   1.931   5.795   5.959
 3498SOL    HW213991   1.841   5.694   5.893
 3498SOL     MW13992   1.879   5.772   5.892
 3499SOL     OW13993   4.156   4.552   4.820
 3499SOL    HW113994   4.076   4.533   4.768
 3499SOL    HW213995   4.189   4.632   4.781
 3499SOL     MW13996   4.150   4.559   4.809
 3500SOL     OW13997   1.894   3.216   4.447
 3500SOL    HW113998   1.866   3.190   4.358
 3500SOL    HW213999   1.831   3.176   4.505
 3500SOL     MW14000   1.883   3.208   4.443
 3501SOL     OW14001   0.864   0.389   4.056
 3501SOL    HW114002   0.860   0.299   4.090
 3501SOL    HW214003   0.842   0.444   4.130
 3501SOL     MW14004   0.861   0.385   4.069
 3502SOL     OW14005   5.016   1.554   4.990
 3502SOL    HW114006   5.052   1.480   5.039
 3502SOL    HW214007   5.091   1.593   4.948
 3502SOL     MW14008   5.029   1.550   4.991
 3503SOL     OW14009   2.237   0.982   0.445
 3503SOL    HW114010   2.270   1.063   0.404
 3503SOL    HW214011   2.238   1.001   0.538
 3503SOL     MW14012   2.241   0.994   0.451
 3504SOL     OW14013   3.663   2.809   2.099
 3504SOL    HW114014   3.576   2.795   2.060
 3504SOL    HW214015   3.648   2.871   2.169
 3504SOL     MW14016   3.651   2.815   2.102
 3505SOL     OW14017   0.115   4.287   0.771
 3505SOL    HW114018   0.169   4.295   0.692
 3505SOL    HW214019   0.156   4.345   0.834
 3505SOL     MW14020   0.126   4.295   0.769
 3506SOL     OW14021   3.785   5.224   1.862
 3506SOL    HW114022   3.811   5.183   1.779
 3506SOL    HW214023   3.825   5.170   1.929
 3506SOL     MW14024   3.793   5.213   1.860
 3507SOL     OW14025   4.747   3.279   3.926
 3507SOL    HW114026   4.677   3.318   3.979
 3507SOL    HW214027   4.700   3.233   3.857
 3507SOL     MW14028   4.733   3.278   3.924
 3508SOL     OW14029   4.555   0.786   3.795
 3508SOL    HW114030   4.540   0.705   3.845
 3508SOL    HW214031   4.541   0.760   3.705
 3508SOL     MW14032   4.551   0.773   3.791
 3509SOL     OW14033   4.952   5.352   1.584
 3509SOL    HW114034   5.034   5.391   1.554
 3509SOL    HW214035   4.909   5.324   1.504
 3509SOL     MW14036   4.957   5.354   1.571
 3510SOL     OW14037   2.493   1.067   1.088
 3510SOL    HW114038   2.536   1.148   1.118
 3510SOL    HW214039   2.468   1.086   0.998
 3510SOL     MW14040   2.496   1.079   1.081
 3511SOL     OW14041   1.041   2.451   5.811
 3511SOL    HW114042   1.012   2.464   5.720
 3511SOL    HW214043   1.107   2.383   5.805
 3511SOL     MW14044   1.045   2.444   5.799
 3512SOL     OW14045   3.114   5.958   1.020
 3512SOL    HW114046   3.095   6.042   1.063
 3512SOL    HW214047   3.053   5.955   0.947
 3512SOL     MW14048   3.104   5.968   1.016
 3513SOL     OW14049   2.385   4.465   2.402
 3513SOL    HW114050   2.326   4.492   2.331
 3513SOL    HW214051   2.354   4.513   2.478
 3513SOL     MW14052   2.374   4.474   2.403
 3514SOL     OW14053   0.441   4.492   3.514
 3514SOL    HW114054   0.506   4.551   3.552
 3514SOL    HW214055   0.443   4.509   3.421
 3514SOL     MW14056   0.449   4.501   3.508
 3515SOL     OW14057   1.708   4.790   5.765
 3515SOL    HW114058   1.774   4.793   5.835
 3515SOL    HW214059   1.625   4.794   5.812
 3515SOL     MW14060   1.706   4.791   5.779
 3516SOL     OW14061   1.409   0.203   1.609
 3516SOL    HW114062   1.378   0.124   1.654
 3516SOL    HW214063   1.496   0.179   1.578
 3516SOL     MW14064   1.416   0.190   1.611
 3517SOL     OW14065   5.901   5.054   0.480
 3517SOL    HW114066   5.884   5.085   0.390
 3517SOL    HW214067   5.977   5.103   0.508
 3517SOL     MW14068   5.908   5.063   0.472
 3518SOL     OW14069   0.779   0.152   4.993
 3518SOL    HW114070   0.874   0.146   4.980
 3518SOL    HW214071   0.767   0.235   5.037
 3518SOL     MW14072   0.789   0.161   4.996
 3519SOL     OW14073   5.412   6.022   6.015
 3519SOL    HW114074   5.360   6.000   6.093
 3519SOL    HW214075   5.356   6.079   5.965
 3519SOL     MW14076   5.399   6.026   6.019
 3520SOL     OW14077   2.322   3.863   4.572
 3520SOL    HW114078   2.392   3.901   4.518
 3520SOL    HW214079   2.350   3.878   4.661
 3520SOL     MW14080   2.334   3.870   4.576
 3521SOL     OW14081   5.249   3.924   4.113
 3521SOL    HW114082   5.313   3.971   4.059
 3521SOL    HW214083   5.259   3.962   4.200
 3521SOL     MW14084   5.258   3.934   4.117
 3522SOL     OW14085   4.220   2.493   1.193
 3522SOL    HW114086   4.248   2.452   1.110
 3522SOL    HW214087   4.281   2.461   1.257
 3522SOL     MW14088   4.230   2.485   1.190
 3523SOL     OW14089   2.906   2.818   4.814
 3523SOL    HW114090   2.844   2.889   4.793
 3523SOL    HW214091   2.923   2.829   4.906
 3523SOL     MW14092   2.900   2.828   4.822
 3524SOL     OW14093   4.904   3.717   1.165
 3524SOL    HW114094   4.877   3.773   1.238
 3524SOL    HW214095   4.953   3.774   1.108
 3524SOL     MW14096   4.906   3.730   1.167
 3525SOL     OW14097   1.963   4.805   3.605
 3525SOL    HW114098   1.924   4.776   3.688
 3525SOL    HW214099   1.918   4.755   3.539
 3525SOL     MW14100   1.953   4.796   3.608
 3526SOL     OW14101   1.871   2.262   3.488
 3526SOL    HW114102   1.827   2.177   3.496
 3526SOL    HW214103   1.868   2.283   3.396
 3526SOL     MW14104   1.865   2.254   3.478
 3527SOL     OW14105   3.633   5.417   2.120
 3527SOL    HW114106   3.639   5.420   2.024
 3527SOL    HW214107   3.580   5.340   2.137
 3527SOL     MW14108   3.627   5.408   2.110
 3528SOL     OW14109   0.773   1.743   4.979
 3528SOL    HW114110   0.847   1.730   5.039
 3528SOL    HW214111   0.772   1.664   4.927
 3528SOL     MW14112   0.782   1.732   4.980
 3529SOL     OW14113   5.910   5.751   1.098
 3529SOL    HW114114   5.820   5.718   1.105
 3529SOL    HW214115   5.961   5.690   1.151
 3529SOL     MW14116   5.905   5.740   1.105
 3530SOL     OW14117   0.072   3.487   5.446
 3530SOL    HW114118  -0.022   3.510   5.443
 3530SOL    HW214119   0.110   3.537   5.375
 3530SOL     MW14120   0.065   3.496   5.438
 3531SOL     OW14121   4.857   0.808   0.421
 3531SOL    HW114122   4.889   0.807   0.512
 3531SOL    HW214123   4.765   0.828   0.429
 3531SOL     MW14124   4.850   0.810   0.433
 3532SOL     OW14125   0.824   5.004   1.308
 3532SOL    HW114126   0.849   4.934   1.369
 3532SOL    HW214127   0.819   5.082   1.361
 3532SOL     MW14128   0.826   5.005   1.322
 3533SOL     OW14129   1.803   0.915   3.264
 3533SOL    HW114130   1.774   0.833   3.305
 3533SOL    HW214131   1.791   0.901   3.171
 3533SOL     MW14132   1.798   0.904   3.258
 3534SOL     OW14133   0.951   5.579   3.707
 3534SOL    HW114134   0.943   5.674   3.693
 3534SOL    HW214135   0.889   5.541   3.645
 3534SOL     MW14136   0.942   5.586   3.698
 3535SOL     OW14137   0.238   4.998   0.328
 3535SOL    HW114138   0.333   4.984   0.317
 3535SOL    HW214139   0.203   4.995   0.240
 3535SOL     MW14140   0.245   4.996   0.316
 3536SOL     OW14141   0.453   4.528   2.695
 3536SOL    HW114142   0.477   4.526   2.789
 3536SOL    HW214143   0.423   4.440   2.677
 3536SOL     MW14144   0.453   4.517   2.705
 3537SOL     OW14145   5.944   5.814   5.327
 3537SOL    HW114146   5.905   5.731   5.357
 3537SOL    HW214147   6.037   5.794   5.319
 3537SOL     MW14148   5.950   5.801   5.330
 3538SOL     OW14149   0.398   1.928   5.652
 3538SOL    HW114150   0.304   1.927   5.631
 3538SOL    HW214151   0.418   1.839   5.679
 3538SOL     MW14152   0.389   1.917   5.653
 3539SOL     OW14153   3.308   4.355   3.189
 3539SOL    HW114154   3.254   4.422   3.146
 3539SOL    HW214155   3.287   4.364   3.281
 3539SOL     MW14156   3.299   4.364   3.195
 3540SOL     OW14157   2.395   5.938   5.958
 3540SOL    HW114158   2.410   6.012   5.898
 3540SOL    HW214159   2.391   5.977   6.044
 3540SOL     MW14160   2.396   5.952   5.961
 3541SOL     OW14161   3.476   2.000   1.055
 3541SOL    HW114162   3.520   1.965   1.133
 3541SOL    HW214163   3.395   1.949   1.049
 3541SOL     MW14164   3.472   1.989   1.064
 3542SOL     OW14165   3.214   4.451   1.376
 3542SOL    HW114166   3.281   4.491   1.432
 3542SOL    HW214167   3.157   4.406   1.437
 3542SOL     MW14168   3.215   4.451   1.390
 3543SOL     OW14169   4.087   0.942   1.531
 3543SOL    HW114170   4.015   0.980   1.583
 3543SOL    HW214171   4.147   0.907   1.596
 3543SOL     MW14172   4.085   0.942   1.545
 3544SOL     OW14173   0.976   3.588   2.210
 3544SOL    HW114174   1.035   3.579   2.135
 3544SOL    HW214175   1.021   3.647   2.269
 3544SOL     MW14176   0.988   3.594   2.208
 3545SOL     OW14177   3.581   1.000   0.621
 3545SOL    HW114178   3.647   0.984   0.689
 3545SOL    HW214179   3.608   0.945   0.549
 3545SOL     MW14180   3.593   0.992   0.621
 3546SOL     OW14181   1.470   2.080   1.929
 3546SOL    HW114182   1.542   2.069   1.866
 3546SOL    HW214183   1.513   2.102   2.010
 3546SOL     MW14184   1.484   2.082   1.931
 3547SOL     OW14185   5.099   1.310   0.899
 3547SOL    HW114186   5.177   1.330   0.951
 3547SOL    HW214187   5.091   1.215   0.906
 3547SOL     MW14188   5.107   1.301   0.906
 3548SOL     OW14189   5.858   5.725   4.879
 3548SOL    HW114190   5.778   5.703   4.831
 3548SOL    HW214191   5.837   5.711   4.970
 3548SOL     MW14192   5.846   5.721   4.884
 3549SOL     OW14193   0.275   4.334   5.817
 3549SOL    HW114194   0.289   4.392   5.894
 3549SOL    HW214195   0.273   4.394   5.744
 3549SOL     MW14196   0.277   4.348   5.818
 3550SOL     OW14197   3.361   1.257   4.363
 3550SOL    HW114198   3.296   1.199   4.405
 3550SOL    HW214199   3.346   1.244   4.270
 3550SOL     MW14200   3.351   1.248   4.357
 3551SOL     OW14201   3.958   4.753   0.491
 3551SOL    HW114202   3.918   4.754   0.404
 3551SOL    HW214203   4.046   4.786   0.477
 3551SOL     MW14204   3.964   4.757   0.479
 3552SOL     OW14205   5.447   0.311   0.924
 3552SOL    HW114206   5.539   0.327   0.900
 3552SOL    HW214207   5.447   0.314   1.019
 3552SOL     MW14208   5.458   0.313   0.932
 3553SOL     OW14209   0.906   5.386   5.634
 3553SOL    HW114210   0.902   5.440   5.713
 3553SOL    HW214211   0.937   5.445   5.567
 3553SOL     MW14212   0.910   5.399   5.635
 3554SOL     OW14213   3.361   4.092   2.283
 3554SOL    HW114214   3.365   4.023   2.216
 3554SOL    HW214215   3.397   4.050   2.361
 3554SOL     MW14216   3.366   4.078   2.284
 3555SOL     OW14217   1.686   2.989   1.378
 3555SOL    HW114218   1.775   2.955   1.366
 3555SOL    HW214219   1.670   2.980   1.471
 3555SOL     MW14220   1.695   2.983   1.388
 3556SOL     OW14221   5.110   2.197   5.780
 3556SOL    HW114222   5.202   2.227   5.779
 3556SOL    HW214223   5.088   2.193   5.872
 3556SOL     MW14224   5.119   2.200   5.790
 3557SOL     OW14225   3.214   2.880   1.744
 3557SOL    HW114226   3.202   2.824   1.822
 3557SOL    HW214227   3.138   2.937   1.745
 3557SOL     MW14228   3.203   2.880   1.754
 3558SOL     OW14229   3.907   2.676   4.842
 3558SOL    HW114230   3.871   2.764   4.852
 3558SOL    HW214231   3.865   2.625   4.910
 3558SOL     MW14232   3.898   2.680   4.851
 3559SOL     OW14233   1.478   3.393   1.051
 3559SOL    HW114234   1.540   3.322   1.034
 3559SOL    HW214235   1.424   3.361   1.122
 3559SOL     MW14236   1.479   3.381   1.057
 3560SOL     OW14237   2.712   4.724   4.056
 3560SOL    HW114238   2.701   4.785   4.130
 3560SOL    HW214239   2.639   4.664   4.064
 3560SOL     MW14240   2.702   4.724   4.066
 3561SOL     OW14241   3.231   1.566   4.078
 3561SOL    HW114242   3.324   1.542   4.075
 3561SOL    HW214243   3.226   1.632   4.147
 3561SOL     MW14244   3.242   1.571   4.086
 3562SOL     OW14245   5.442   3.895   2.461
 3562SOL    HW114246   5.481   3.927   2.543
 3562SOL    HW214247   5.475   3.956   2.395
 3562SOL     MW14248   5.451   3.906   2.463
 3563SOL     OW14249   5.750   4.291   5.407
 3563SOL    HW114250   5.832   4.327   5.442
 3563SOL    HW214251   5.775   4.254   5.323
 3563SOL     MW14252   5.763   4.291   5.401
 3564SOL     OW14253   0.327   1.971   2.564
 3564SOL    HW114254   0.283   1.887   2.581
 3564SOL    HW214255   0.337   2.010   2.650
 3564SOL     MW14256   0.323   1.965   2.576
 3565SOL     OW14257   3.485   1.103   3.776
 3565SOL    HW114258   3.555   1.081   3.713
 3565SOL    HW214259   3.405   1.092   3.727
 3565SOL     MW14260   3.484   1.099   3.762
 3566SOL     OW14261   3.563   5.609   5.486
 3566SOL    HW114262   3.589   5.615   5.579
 3566SOL    HW214263   3.564   5.516   5.468
 3566SOL     MW14264   3.567   5.599   5.495
 3567SOL     OW14265   0.578   3.121   1.219
 3567SOL    HW114266   0.500   3.149   1.171
 3567SOL    HW214267   0.551   3.120   1.310
 3567SOL     MW14268   0.565   3.124   1.224
 3568SOL     OW14269   1.320   5.447   4.683
 3568SOL    HW114270   1.371   5.387   4.738
 3568SOL    HW214271   1.358   5.438   4.596
 3568SOL     MW14272   1.331   5.439   4.679
 3569SOL     OW14273   4.522   4.363   5.320
 3569SOL    HW114274   4.616   4.365   5.338
 3569SOL    HW214275   4.512   4.412   5.239
 3569SOL     MW14276   4.532   4.369   5.312
 3570SOL     OW14277   3.149   2.229   4.923
 3570SOL    HW114278   3.125   2.159   4.860
 3570SOL    HW214279   3.097   2.209   4.999
 3570SOL     MW14280   3.140   2.218   4.924
 3571SOL     OW14281   1.108   4.029   0.301
 3571SOL    HW114282   1.140   4.032   0.210
 3571SOL    HW214283   1.163   4.092   0.346
 3571SOL     MW14284   1.119   4.037   0.295
 3572SOL     OW14285   2.075   2.221   0.878
 3572SOL    HW114286   2.163   2.261   0.888
 3572SOL    HW214287   2.088   2.154   0.812
 3572SOL     MW14288   2.088   2.218   0.871
 3573SOL     OW14289   3.408   5.838   2.185
 3573SOL    HW114290   3.484   5.879   2.143
 3573SOL    HW214291   3.422   5.852   2.278
 3573SOL     MW14292   3.419   5.845   2.191
 3574SOL     OW14293   1.208   0.364   1.189
 3574SOL    HW114294   1.210   0.441   1.132
 3574SOL    HW214295   1.195   0.399   1.276
 3574SOL     MW14296   1.207   0.377   1.193
 3575SOL     OW14297   3.651   3.733   1.316
 3575SOL    HW114298   3.730   3.679   1.314
 3575SOL    HW214299   3.591   3.689   1.256
 3575SOL     MW14300   3.653   3.721   1.308
 3576SOL     OW14301   2.362   5.939   3.011
 3576SOL    HW114302   2.315   5.865   2.971
 3576SOL    HW214303   2.447   5.903   3.033
 3576SOL     MW14304   2.367   5.926   3.008
 3577SOL     OW14305   0.641   1.568   1.882
 3577SOL    HW114306   0.737   1.576   1.880
 3577SOL    HW214307   0.615   1.570   1.791
 3577SOL     MW14308   0.649   1.569   1.871
 3578SOL     OW14309   3.652   3.105   4.261
 3578SOL    HW114310   3.711   3.032   4.282
 3578SOL    HW214311   3.693   3.148   4.187
 3578SOL     MW14312   3.664   3.101   4.255
 3579SOL     OW14313   2.699   0.610   1.017
 3579SOL    HW114314   2.658   0.691   1.051
 3579SOL    HW214315   2.683   0.614   0.924
 3579SOL     MW14316   2.692   0.621   1.010
 3580SOL     OW14317   5.555   2.017   0.600
 3580SOL    HW114318   5.626   2.075   0.629
 3580SOL    HW214319   5.571   2.006   0.507
 3580SOL     MW14320   5.566   2.023   0.592
 3581SOL     OW14321   3.903   6.052   1.794
 3581SOL    HW114322   3.904   6.145   1.768
 3581SOL    HW214323   3.905   6.055   1.889
 3581SOL     MW14324   3.903   6.064   1.802
 3582SOL     OW14325   2.579   3.815   1.035
 3582SOL    HW114326   2.517   3.742   1.047
 3582SOL    HW214327   2.621   3.796   0.951
 3582SOL     MW14328   2.577   3.804   1.026
 3583SOL     OW14329   5.035   1.624   0.245
 3583SOL    HW114330   5.113   1.655   0.291
 3583SOL    HW214331   4.970   1.690   0.263
 3583SOL     MW14332   5.037   1.635   0.253
 3584SOL     OW14333   3.410   3.748   3.849
 3584SOL    HW114334   3.425   3.654   3.840
 3584SOL    HW214335   3.451   3.786   3.772
 3584SOL     MW14336   3.417   3.741   3.839
 3585SOL     OW14337   3.134   2.947   2.478
 3585SOL    HW114338   3.162   2.886   2.547
 3585SOL    HW214339   3.167   2.908   2.397
 3585SOL     MW14340   3.142   2.935   2.476
 3586SOL     OW14341   0.543   4.144   2.349
 3586SOL    HW114342   0.605   4.140   2.275
 3586SOL    HW214343   0.464   4.181   2.311
 3586SOL     MW14344   0.541   4.148   2.335
 3587SOL     OW14345   5.134   5.465   4.300
 3587SOL    HW114346   5.129   5.557   4.327
 3587SOL    HW214347   5.121   5.417   4.381
 3587SOL     MW14348   5.132   5.471   4.313
 3588SOL     OW14349   0.430   2.484   3.586
 3588SOL    HW114350   0.360   2.549   3.600
 3588SOL    HW214351   0.408   2.414   3.646
 3588SOL     MW14352   0.418   2.484   3.595
 3589SOL     OW14353   5.111   1.850   3.260
 3589SOL    HW114354   5.050   1.841   3.185
 3589SOL    HW214355   5.149   1.937   3.248
 3589SOL     MW14356   5.108   1.860   3.249
 3590SOL     OW14357   3.601   3.524   4.763
 3590SOL    HW114358   3.566   3.520   4.853
 3590SOL    HW214359   3.537   3.478   4.711
 3590SOL     MW14360   3.589   3.518   4.768
 3591SOL     OW14361   4.847   4.011   4.137
 3591SOL    HW114362   4.848   4.068   4.215
 3591SOL    HW214363   4.865   3.924   4.171
 3591SOL     MW14364   4.849   4.008   4.151
 3592SOL     OW14365   0.438   2.329   5.397
 3592SOL    HW114366   0.474   2.417   5.414
 3592SOL    HW214367   0.430   2.325   5.303
 3592SOL     MW14368   0.442   2.339   5.388
 3593SOL     OW14369   2.623   2.995   3.927
 3593SOL    HW114370   2.659   2.968   3.842
 3593SOL    HW214371   2.531   2.969   3.923
 3593SOL     MW14372   2.616   2.988   3.916
 3594SOL     OW14373   2.731   5.222   5.225
 3594SOL    HW114374   2.780   5.144   5.196
 3594SOL    HW214375   2.731   5.216   5.320
 3594SOL     MW14376   2.737   5.212   5.233
 3595SOL     OW14377   3.437   1.513   0.269
 3595SOL    HW114378   3.348   1.539   0.293
 3595SOL    HW214379   3.492   1.584   0.302
 3595SOL     MW14380   3.433   1.525   0.276
 3596SOL     OW14381   3.209   1.918   3.867
 3596SOL    HW114382   3.229   1.835   3.912
 3596SOL    HW214383   3.209   1.895   3.775
 3596SOL     MW14384   3.212   1.905   3.862
 3597SOL     OW14385   3.490   1.750   2.219
 3597SOL    HW114386   3.399   1.781   2.211
 3597SOL    HW214387   3.528   1.769   2.134
 3597SOL     MW14388   3.483   1.756   2.208
 3598SOL     OW14389   2.747   0.412   4.481
 3598SOL    HW114390   2.694   0.478   4.435
 3598SOL    HW214391   2.737   0.434   4.572
 3598SOL     MW14392   2.739   0.423   4.486
 3599SOL     OW14393   1.662   1.731   1.723
 3599SOL    HW114394   1.681   1.644   1.687
 3599SOL    HW214395   1.678   1.721   1.816
 3599SOL     MW14396   1.666   1.719   1.730
 3600SOL     OW14397   5.469   5.507   2.273
 3600SOL    HW114398   5.420   5.461   2.342
 3600SOL    HW214399   5.539   5.447   2.250
 3600SOL     MW14400   5.471   5.494   2.278
 3601SOL     OW14401   2.750   4.098   1.820
 3601SOL    HW114402   2.814   4.147   1.874
 3601SOL    HW214403   2.799   4.075   1.743
 3601SOL     MW14404   2.764   4.101   1.818
 3602SOL     OW14405   0.256   0.219   3.333
 3602SOL    HW114406   0.174   0.198   3.378
 3602SOL    HW214407   0.234   0.215   3.241
 3602SOL     MW14408   0.244   0.216   3.328
 3603SOL     OW14409   1.076   1.748   1.095
 3603SOL    HW114410   0.997   1.737   1.149
 3603SOL    HW214411   1.115   1.829   1.127
 3603SOL     MW14412   1.071   1.756   1.106
 3604SOL     OW14413   4.787   3.326   2.367
 3604SOL    HW114414   4.744   3.280   2.440
 3604SOL    HW214415   4.715   3.366   2.320
 3604SOL     MW14416   4.773   3.325   2.370
 3605SOL     OW14417   4.647   0.439   1.988
 3605SOL    HW114418   4.583   0.500   1.950
 3605SOL    HW214419   4.630   0.441   2.081
 3605SOL     MW14420   4.637   0.447   1.994
 3606SOL     OW14421   6.012   0.124   2.661
 3606SOL    HW114422   5.964   0.150   2.740
 3606SOL    HW214423   5.946   0.085   2.605
 3606SOL     MW14424   5.999   0.122   2.664
 3607SOL     OW14425   6.051   4.101   2.500
 3607SOL    HW114426   6.031   4.048   2.578
 3607SOL    HW214427   5.966   4.129   2.469
 3607SOL     MW14428   6.039   4.098   2.506
 3608SOL     OW14429   3.420   3.609   3.336
 3608SOL    HW114430   3.478   3.589   3.262
 3608SOL    HW214431   3.477   3.604   3.412
 3608SOL     MW14432   3.434   3.606   3.336
 3609SOL     OW14433   1.503   4.621   1.597
 3609SOL    HW114434   1.473   4.657   1.513
 3609SOL    HW214435   1.509   4.697   1.655
 3609SOL     MW14436   1.500   4.635   1.594
 3610SOL     OW14437   3.854   5.499   4.536
 3610SOL    HW114438   3.837   5.413   4.576
 3610SOL    HW214439   3.917   5.481   4.468
 3610SOL     MW14440   3.859   5.486   4.533
 3611SOL     OW14441   0.869   1.322   6.014
 3611SOL    HW114442   0.828   1.286   6.094
 3611SOL    HW214443   0.942   1.264   5.997
 3611SOL     MW14444   0.872   1.310   6.021
 3612SOL     OW14445   1.219   0.558   0.323
 3612SOL    HW114446   1.283   0.593   0.259
 3612SOL    HW214447   1.242   0.602   0.404
 3612SOL     MW14448   1.230   0.567   0.324
 3613SOL     OW14449   5.558   0.366   0.284
 3613SOL    HW114450   5.548   0.302   0.214
 3613SOL    HW214451   5.636   0.338   0.331
 3613SOL     MW14452   5.566   0.355   0.281
 3614SOL     OW14453   1.291   4.714   1.684
 3614SOL    HW114454   1.292   4.810   1.679
 3614SOL    HW214455   1.351   4.694   1.755
 3614SOL     MW14456   1.298   4.723   1.692
 3615SOL     OW14457   1.785   5.044   3.458
 3615SOL    HW114458   1.857   4.984   3.478
 3615SOL    HW214459   1.773   5.036   3.364
 3615SOL     MW14460   1.792   5.036   3.449
 3616SOL     OW14461   4.675   3.207   5.652
 3616SOL    HW114462   4.753   3.206   5.596
 3616SOL    HW214463   4.608   3.246   5.597
 3616SOL     MW14464   4.676   3.211   5.638
 3617SOL     OW14465   3.296   1.523   0.018
 3617SOL    HW114466   3.215   1.565   0.047
 3617SOL    HW214467   3.337   1.492   0.099
 3617SOL     MW14468   3.291   1.524   0.031
 3618SOL     OW14469   0.155   2.495   0.522
 3618SOL    HW114470   0.159   2.567   0.586
 3618SOL    HW214471   0.080   2.516   0.468
 3618SOL     MW14472   0.147   2.507   0.523
 3619SOL     OW14473   0.054   3.933   3.451
 3619SOL    HW114474   0.145   3.966   3.454
 3619SOL    HW214475   0.062   3.841   3.470
 3619SOL     MW14476   0.066   3.926   3.454
 3620SOL     OW14477   1.398   4.340   4.743
 3620SOL    HW114478   1.357   4.416   4.700
 3620SOL    HW214479   1.391   4.359   4.836
 3620SOL     MW14480   1.392   4.352   4.749
 3621SOL     OW14481   1.805   1.160   5.914
 3621SOL    HW114482   1.801   1.201   6.001
 3621SOL    HW214483   1.876   1.205   5.870
 3621SOL     MW14484   1.813   1.170   5.919
 3622SOL     OW14485   4.407   1.858   2.426
 3622SOL    HW114486   4.319   1.829   2.451
 3622SOL    HW214487   4.449   1.881   2.508
 3622SOL     MW14488   4.401   1.857   2.439
 3623SOL     OW14489   4.353   1.121   5.454
 3623SOL    HW114490   4.280   1.155   5.403
 3623SOL    HW214491   4.350   1.027   5.440
 3623SOL     MW14492   4.344   1.114   5.446
 3624SOL     OW14493   5.991   4.995   1.767
 3624SOL    HW114494   5.935   4.920   1.788
 3624SOL    HW214495   5.983   5.052   1.842
 3624SOL     MW14496   5.983   4.993   1.778
 3625SOL     OW14497   0.245   1.296   0.127
 3625SOL    HW114498   0.252   1.361   0.197
 3625SOL    HW214499   0.323   1.310   0.074
 3625SOL     MW14500   0.256   1.306   0.129
 3626SOL     OW14501   4.418   1.220   4.637
 3626SOL    HW114502   4.394   1.300   4.589
 3626SOL    HW214503   4.381   1.149   4.585
 3626SOL     MW14504   4.410   1.221   4.625
 3627SOL     OW14505   3.027   2.075   0.596
 3627SOL    HW114506   3.042   2.163   0.560
 3627SOL    HW214507   3.038   2.086   0.690
 3627SOL     MW14508   3.030   2.087   0.603
 3628SOL     OW14509   1.472   6.092   4.045
 3628SOL    HW114510   1.493   6.096   4.138
 3628SOL    HW214511   1.517   6.015   4.013
 3628SOL     MW14512   1.479   6.083   4.052
 3629SOL     OW14513   4.278   2.181   6.010
 3629SOL    HW114514   4.185   2.184   5.984
 3629SOL    HW214515   4.275   2.174   6.105
 3629SOL     MW14516   4.266   2.181   6.018
 3630SOL     OW14517   2.707   2.158   0.904
 3630SOL    HW114518   2.803   2.167   0.909
 3630SOL    HW214519   2.692   2.122   0.817
 3630SOL     MW14520   2.717   2.155   0.894
 3631SOL     OW14521   2.417   2.402   5.866
 3631SOL    HW114522   2.436   2.315   5.902
 3631SOL    HW214523   2.417   2.459   5.941
 3631SOL     MW14524   2.419   2.398   5.879
 3632SOL     OW14525   5.578   3.745   1.170
 3632SOL    HW114526   5.543   3.805   1.236
 3632SOL    HW214527   5.507   3.733   1.108
 3632SOL     MW14528   5.566   3.751   1.171
 3633SOL     OW14529   0.372   1.120   4.238
 3633SOL    HW114530   0.432   1.101   4.165
 3633SOL    HW214531   0.420   1.093   4.315
 3633SOL     MW14532   0.385   1.114   4.238
 3634SOL     OW14533   4.337   2.041   0.970
 3634SOL    HW114534   4.300   2.128   0.989
 3634SOL    HW214535   4.320   2.029   0.877
 3634SOL     MW14536   4.331   2.051   0.961
 3635SOL     OW14537   4.019   4.712   2.833
 3635SOL    HW114538   4.099   4.758   2.863
 3635SOL    HW214539   4.014   4.732   2.741
 3635SOL     MW14540   4.028   4.720   2.826
 3636SOL     OW14541   5.629   2.493   1.256
 3636SOL    HW114542   5.549   2.505   1.204
 3636SOL    HW214543   5.606   2.424   1.318
 3636SOL     MW14544   5.616   2.486   1.257
 3637SOL     OW14545   5.502   3.287   3.678
 3637SOL    HW114546   5.512   3.206   3.729
 3637SOL    HW214547   5.498   3.257   3.588
 3637SOL     MW14548   5.503   3.273   3.673
 3638SOL     OW14549   4.880   0.297   2.727
 3638SOL    HW114550   4.952   0.300   2.791
 3638SOL    HW214551   4.888   0.212   2.686
 3638SOL     MW14552   4.890   0.288   2.730
 3639SOL     OW14553   5.560   2.593   2.210
 3639SOL    HW114554   5.490   2.528   2.197
 3639SOL    HW214555   5.514   2.673   2.232
 3639SOL     MW14556   5.546   2.595   2.211
 3640SOL     OW14557   2.346   4.850   3.208
 3640SOL    HW114558   2.441   4.862   3.192
 3640SOL    HW214559   2.310   4.834   3.122
 3640SOL     MW14560   2.354   4.849   3.196
 3641SOL     OW14561   5.887   1.977   0.781
 3641SOL    HW114562   5.876   1.882   0.767
 3641SOL    HW214563   5.975   1.984   0.817
 3641SOL     MW14564   5.896   1.966   0.784
 3642SOL     OW14565   6.026   1.907   4.429
 3642SOL    HW114566   5.960   1.969   4.463
 3642SOL    HW214567   5.990   1.879   4.345
 3642SOL     MW14568   6.014   1.912   4.423
 3643SOL     OW14569   0.595   1.130   4.249
 3643SOL    HW114570   0.667   1.136   4.314
 3643SOL    HW214571   0.634   1.162   4.169
 3643SOL     MW14572   0.609   1.135   4.247
 3644SOL     OW14573   2.457   0.735   1.464
 3644SOL    HW114574   2.496   0.762   1.548
 3644SOL    HW214575   2.444   0.642   1.473
 3644SOL     MW14576   2.460   0.728   1.475
 3645SOL     OW14577   5.521   3.775   1.899
 3645SOL    HW114578   5.494   3.863   1.925
 3645SOL    HW214579   5.605   3.787   1.858
 3645SOL     MW14580   5.528   3.787   1.897
 3646SOL     OW14581   1.633   4.556   1.107
 3646SOL    HW114582   1.588   4.473   1.127
 3646SOL    HW214583   1.692   4.569   1.179
 3646SOL     MW14584   1.634   4.547   1.118
 3647SOL     OW14585   2.822   2.370   4.289
 3647SOL    HW114586   2.796   2.462   4.287
 3647SOL    HW214587   2.865   2.360   4.374
 3647SOL     MW14588   2.824   2.380   4.299
 3648SOL     OW14589   4.052   1.852   3.753
 3648SOL    HW114590   4.012   1.859   3.841
 3648SOL    HW214591   4.135   1.897   3.762
 3648SOL     MW14592   4.057   1.858   3.765
 3649SOL     OW14593   5.049   5.841   3.481
 3649SOL    HW114594   5.062   5.842   3.576
 3649SOL    HW214595   5.072   5.928   3.453
 3649SOL     MW14596   5.054   5.851   3.489
 3650SOL     OW14597   4.711   0.816   1.963
 3650SOL    HW114598   4.768   0.776   1.896
 3650SOL    HW214599   4.725   0.909   1.951
 3650SOL     MW14600   4.719   0.822   1.953
 3651SOL     OW14601   5.152   0.739   4.292
 3651SOL    HW114602   5.135   0.734   4.198
 3651SOL    HW214603   5.155   0.648   4.320
 3651SOL     MW14604   5.150   0.727   4.284
 3652SOL     OW14605   1.907   5.211   2.786
 3652SOL    HW114606   1.884   5.237   2.876
 3652SOL    HW214607   1.867   5.278   2.732
 3652SOL     MW14608   1.900   5.222   2.791
 3653SOL     OW14609   3.614   5.195   4.063
 3653SOL    HW114610   3.596   5.107   4.027
 3653SOL    HW214611   3.686   5.180   4.123
 3653SOL     MW14612   3.620   5.182   4.065
 3654SOL     OW14613   4.662   0.882   4.067
 3654SOL    HW114614   4.649   0.800   4.115
 3654SOL    HW214615   4.683   0.854   3.979
 3654SOL     MW14616   4.663   0.869   4.063
 3655SOL     OW14617   2.428   3.311   3.760
 3655SOL    HW114618   2.339   3.341   3.780
 3655SOL    HW214619   2.479   3.391   3.756
 3655SOL     MW14620   2.423   3.324   3.762
 3656SOL     OW14621   4.555   5.166   4.411
 3656SOL    HW114622   4.534   5.255   4.381
 3656SOL    HW214623   4.551   5.172   4.506
 3656SOL     MW14624   4.552   5.177   4.419
 3657SOL     OW14625   1.803   1.807   3.127
 3657SOL    HW114626   1.845   1.793   3.213
 3657SOL    HW214627   1.858   1.759   3.067
 3657SOL     MW14628   1.815   1.800   3.131
 3658SOL     OW14629   0.157   5.457   0.627
 3658SOL    HW114630   0.191   5.534   0.674
 3658SOL    HW214631   0.066   5.477   0.611
 3658SOL     MW14632   0.151   5.469   0.631
 3659SOL     OW14633   3.959   4.833   4.532
 3659SOL    HW114634   3.880   4.823   4.478
 3659SOL    HW214635   3.960   4.755   4.586
 3659SOL     MW14636   3.949   4.823   4.532
 3660SOL     OW14637   5.875   2.852   5.252
 3660SOL    HW114638   5.806   2.892   5.198
 3660SOL    HW214639   5.843   2.861   5.341
 3660SOL     MW14640   5.862   2.858   5.256
 3661SOL     OW14641   1.821   3.519   5.039
 3661SOL    HW114642   1.860   3.516   4.951
 3661SOL    HW214643   1.728   3.529   5.023
 3661SOL     MW14644   1.815   3.520   5.027
 3662SOL     OW14645   2.476   1.291   3.551
 3662SOL    HW114646   2.514   1.300   3.463
 3662SOL    HW214647   2.389   1.256   3.535
 3662SOL     MW14648   2.470   1.288   3.538
 3663SOL     OW14649   4.914   2.519   1.771
 3663SOL    HW114650   4.926   2.499   1.864
 3663SOL    HW214651   4.974   2.592   1.755
 3663SOL     MW14652   4.923   2.525   1.780
 3664SOL     OW14653   1.523   0.219   2.225
 3664SOL    HW114654   1.519   0.304   2.271
 3664SOL    HW214655   1.519   0.242   2.134
 3664SOL     MW14656   1.522   0.232   2.220
 3665SOL     OW14657   2.899   0.809   2.555
 3665SOL    HW114658   2.833   0.813   2.485
 3665SOL    HW214659   2.864   0.746   2.617
 3665SOL     MW14660   2.887   0.802   2.554
 3666SOL     OW14661   0.186   1.284   4.647
 3666SOL    HW114662   0.171   1.218   4.715
 3666SOL    HW214663   0.279   1.278   4.629
 3666SOL     MW14664   0.195   1.275   4.653
 3667SOL     OW14665   2.580   5.518   4.268
 3667SOL    HW114666   2.565   5.611   4.247
 3667SOL    HW214667   2.674   5.508   4.264
 3667SOL     MW14668   2.589   5.528   4.265
 3668SOL     OW14669   5.391   5.229   5.988
 3668SOL    HW114670   5.325   5.159   5.985
 3668SOL    HW214671   5.369   5.285   5.915
 3668SOL     MW14672   5.381   5.227   5.979
 3669SOL     OW14673   4.299   2.510   0.434
 3669SOL    HW114674   4.357   2.565   0.489
 3669SOL    HW214675   4.234   2.571   0.402
 3669SOL     MW14676   4.298   2.524   0.437
 3670SOL     OW14677   3.462   3.817   3.200
 3670SOL    HW114678   3.472   3.748   3.134
 3670SOL    HW214679   3.413   3.776   3.270
 3670SOL     MW14680   3.457   3.804   3.200
 3671SOL     OW14681   5.697   0.752   1.214
 3671SOL    HW114682   5.629   0.707   1.163
 3671SOL    HW214683   5.682   0.722   1.303
 3671SOL     MW14684   5.687   0.743   1.219
 3672SOL     OW14685   2.607   4.471   0.793
 3672SOL    HW114686   2.574   4.545   0.845
 3672SOL    HW214687   2.595   4.396   0.850
 3672SOL     MW14688   2.601   4.471   0.806
 3673SOL     OW14689   2.465   2.389   0.904
 3673SOL    HW114690   2.450   2.313   0.961
 3673SOL    HW214691   2.508   2.353   0.828
 3673SOL     MW14692   2.468   2.375   0.902
 3674SOL     OW14693   5.046   1.252   0.475
 3674SOL    HW114694   5.093   1.211   0.548
 3674SOL    HW214695   5.023   1.180   0.418
 3674SOL     MW14696   5.049   1.239   0.478
 3675SOL     OW14697   3.789   1.127   3.346
 3675SOL    HW114698   3.825   1.040   3.366
 3675SOL    HW214699   3.862   1.186   3.361
 3675SOL     MW14700   3.802   1.123   3.350
 3676SOL     OW14701   0.065   1.158   5.796
 3676SOL    HW114702   0.128   1.131   5.862
 3676SOL    HW214703   0.018   1.079   5.774
 3676SOL     MW14704   0.067   1.146   5.801
 3677SOL     OW14705   4.164   2.365   3.890
 3677SOL    HW114706   4.240   2.398   3.938
 3677SOL    HW214707   4.189   2.277   3.863
 3677SOL     MW14708   4.176   2.359   3.892
 3678SOL     OW14709   3.839   0.368   2.151
 3678SOL    HW114710   3.760   0.399   2.198
 3678SOL    HW214711   3.805   0.306   2.088
 3678SOL     MW14712   3.825   0.364   2.150
 3679SOL     OW14713   2.428   1.071   0.092
 3679SOL    HW114714   2.361   1.116   0.038
 3679SOL    HW214715   2.392   1.073   0.180
 3679SOL     MW14716   2.415   1.077   0.096
 3680SOL     OW14717   4.811   0.920   4.488
 3680SOL    HW114718   4.847   0.893   4.403
 3680SOL    HW214719   4.738   0.976   4.466
 3680SOL     MW14720   4.807   0.923   4.475
 3681SOL     OW14721   3.897   1.234   2.007
 3681SOL    HW114722   3.916   1.140   2.021
 3681SOL    HW214723   3.928   1.251   1.919
 3681SOL     MW14724   3.903   1.224   1.998
 3682SOL     OW14725   2.403   2.718   5.358
 3682SOL    HW114726   2.480   2.664   5.376
 3682SOL    HW214727   2.396   2.718   5.263
 3682SOL     MW14728   2.411   2.711   5.349
 3683SOL     OW14729   5.508   0.218   4.439
 3683SOL    HW114730   5.440   0.202   4.505
 3683SOL    HW214731   5.576   0.154   4.459
 3683SOL     MW14732   5.508   0.208   4.449
 3684SOL     OW14733   3.274   3.442   1.253
 3684SOL    HW114734   3.248   3.439   1.160
 3684SOL    HW214735   3.194   3.466   1.298
 3684SOL     MW14736   3.261   3.445   1.247
 3685SOL     OW14737   1.115   3.080   6.089
 3685SOL    HW114738   1.168   3.139   6.144
 3685SOL    HW214739   1.100   3.129   6.009
 3685SOL     MW14740   1.120   3.093   6.086
 3686SOL     OW14741   0.237   3.831   5.474
 3686SOL    HW114742   0.256   3.828   5.380
 3686SOL    HW214743   0.312   3.877   5.511
 3686SOL     MW14744   0.248   3.836   5.467
 3687SOL     OW14745   1.844   0.215   3.074
 3687SOL    HW114746   1.802   0.140   3.118
 3687SOL    HW214747   1.836   0.195   2.981
 3687SOL     MW14748   1.838   0.203   3.068
 3688SOL     OW14749   5.141   4.382   2.350
 3688SOL    HW114750   5.214   4.341   2.303
 3688SOL    HW214751   5.150   4.351   2.439
 3688SOL     MW14752   5.151   4.373   2.355
 3689SOL     OW14753   5.301   0.618   5.064
 3689SOL    HW114754   5.336   0.674   5.134
 3689SOL    HW214755   5.369   0.618   4.998
 3689SOL     MW14756   5.313   0.625   5.065
 3690SOL     OW14757   3.994   6.015   2.633
 3690SOL    HW114758   3.985   5.926   2.598
 3690SOL    HW214759   4.038   6.003   2.716
 3690SOL     MW14760   3.998   6.003   2.639
 3691SOL     OW14761   2.290   2.389   4.516
 3691SOL    HW114762   2.305   2.296   4.536
 3691SOL    HW214763   2.196   2.399   4.521
 3691SOL     MW14764   2.281   2.379   4.519
 3692SOL     OW14765   0.375   0.518   4.582
 3692SOL    HW114766   0.422   0.555   4.658
 3692SOL    HW214767   0.284   0.531   4.603
 3692SOL     MW14768   0.370   0.524   4.594
 3693SOL     OW14769   1.840   1.786   1.366
 3693SOL    HW114770   1.894   1.714   1.399
 3693SOL    HW214771   1.817   1.760   1.278
 3693SOL     MW14772   1.844   1.774   1.359
 3694SOL     OW14773   1.412   1.176   5.496
 3694SOL    HW114774   1.480   1.235   5.461
 3694SOL    HW214775   1.460   1.096   5.515
 3694SOL     MW14776   1.426   1.174   5.494
 3695SOL     OW14777   4.792   1.791   3.528
 3695SOL    HW114778   4.822   1.875   3.490
 3695SOL    HW214779   4.799   1.805   3.621
 3695SOL     MW14780   4.796   1.803   3.534
 3696SOL     OW14781   3.880   0.683   6.043
 3696SOL    HW114782   3.855   0.773   6.018
 3696SOL    HW214783   3.834   0.668   6.125
 3696SOL     MW14784   3.872   0.692   6.050
 3697SOL     OW14785   1.411   5.866   4.147
 3697SOL    HW114786   1.458   5.835   4.069
 3697SOL    HW214787   1.405   5.960   4.135
 3697SOL     MW14788   1.416   5.873   4.136
 3698SOL     OW14789   6.079   4.350   5.325
 3698SOL    HW114790   6.002   4.379   5.274
 3698SOL    HW214791   6.128   4.297   5.264
 3698SOL     MW14792   6.075   4.348   5.311
 3699SOL     OW14793   4.427   5.267   2.048
 3699SOL    HW114794   4.518   5.246   2.070
 3699SOL    HW214795   4.378   5.192   2.079
 3699SOL     MW14796   4.432   5.256   2.054
 3700SOL     OW14797   3.743   1.918   0.786
 3700SOL    HW114798   3.807   1.852   0.816
 3700SOL    HW214799   3.778   2.000   0.817
 3700SOL     MW14800   3.755   1.919   0.793
 3701SOL     OW14801   2.429   4.477   3.611
 3701SOL    HW114802   2.508   4.437   3.574
 3701SOL    HW214803   2.447   4.482   3.704
 3701SOL     MW14804   2.441   4.472   3.617
 3702SOL     OW14805   3.751   1.550   5.647
 3702SOL    HW114806   3.690   1.581   5.714
 3702SOL    HW214807   3.751   1.455   5.658
 3702SOL     MW14808   3.743   1.542   5.656
 3703SOL     OW14809   4.362   1.897   1.770
 3703SOL    HW114810   4.279   1.867   1.807
 3703SOL    HW214811   4.353   1.881   1.677
 3703SOL     MW14812   4.351   1.891   1.763
 3704SOL     OW14813   0.641   5.794   0.260
 3704SOL    HW114814   0.699   5.735   0.308
 3704SOL    HW214815   0.567   5.740   0.234
 3704SOL     MW14816   0.639   5.781   0.263
 3705SOL     OW14817   2.079   2.802   3.841
 3705SOL    HW114818   2.146   2.870   3.851
 3705SOL    HW214819   2.036   2.799   3.925
 3705SOL     MW14820   2.082   2.810   3.852
 3706SOL     OW14821   3.638   5.762   2.838
 3706SOL    HW114822   3.569   5.752   2.771
 3706SOL    HW214823   3.609   5.837   2.888
 3706SOL     MW14824   3.626   5.770   2.835
 3707SOL     OW14825   1.723   3.778   3.487
 3707SOL    HW114826   1.796   3.827   3.447
 3707SOL    HW214827   1.732   3.795   3.580
 3707SOL     MW14828   1.733   3.786   3.494
 3708SOL     OW14829   5.694   4.443   0.067
 3708SOL    HW114830   5.781   4.413   0.095
 3708SOL    HW214831   5.670   4.382  -0.002
 3708SOL     MW14832   5.702   4.432   0.063
 3709SOL     OW14833   0.201   2.608   3.038
 3709SOL    HW114834   0.113   2.596   3.002
 3709SOL    HW214835   0.186   2.655   3.119
 3709SOL     MW14836   0.189   2.612   3.043
 3710SOL     OW14837   4.702   3.576   1.643
 3710SOL    HW114838   4.634   3.520   1.604
 3710SOL    HW214839   4.672   3.592   1.732
 3710SOL     MW14840   4.690   3.571   1.649
 3711SOL     OW14841   1.462   3.582   3.395
 3711SOL    HW114842   1.542   3.601   3.345
 3711SOL    HW214843   1.400   3.646   3.364
 3711SOL     MW14844   1.465   3.592   3.385
 3712SOL     OW14845   5.628   5.333   4.917
 3712SOL    HW114846   5.560   5.398   4.897
 3712SOL    HW214847   5.672   5.318   4.835
 3712SOL     MW14848   5.625   5.340   4.905
 3713SOL     OW14849   3.918   3.558   4.041
 3713SOL    HW114850   3.851   3.499   4.005
 3713SOL    HW214851   3.898   3.642   4.003
 3713SOL     MW14852   3.907   3.560   4.032
 3714SOL     OW14853   1.815   2.203   3.163
 3714SOL    HW114854   1.871   2.280   3.156
 3714SOL    HW214855   1.802   2.175   3.073
 3714SOL     MW14856   1.820   2.209   3.151
 3715SOL     OW14857   2.051   5.268   4.630
 3715SOL    HW114858   2.111   5.216   4.685
 3715SOL    HW214859   2.014   5.331   4.690
 3715SOL     MW14860   2.054   5.269   4.644
 3716SOL     OW14861   4.050   5.089   2.954
 3716SOL    HW114862   4.062   5.099   3.048
 3716SOL    HW214863   4.084   5.002   2.935
 3716SOL     MW14864   4.055   5.080   2.963
 3717SOL     OW14865   5.727   4.574   5.363
 3717SOL    HW114866   5.639   4.595   5.397
 3717SOL    HW214867   5.716   4.571   5.269
 3717SOL     MW14868   5.715   4.576   5.356
 3718SOL     OW14869   5.999   2.931   0.966
 3718SOL    HW114870   6.076   2.970   1.008
 3718SOL    HW214871   6.023   2.922   0.875
 3718SOL     MW14872   6.011   2.935   0.961
 3719SOL     OW14873   1.622   0.148   4.523
 3719SOL    HW114874   1.580   0.127   4.440
 3719SOL    HW214875   1.604   0.073   4.578
 3719SOL     MW14876   1.615   0.137   4.520
 3720SOL     OW14877   2.979   0.166   0.562
 3720SOL    HW114878   2.956   0.236   0.624
 3720SOL    HW214879   2.895   0.130   0.534
 3720SOL     MW14880   2.966   0.170   0.566
 3721SOL     OW14881   1.254   4.807   4.818
 3721SOL    HW114882   1.171   4.768   4.849
 3721SOL    HW214883   1.230   4.847   4.735
 3721SOL     MW14884   1.241   4.807   4.812
 3722SOL     OW14885   0.753   5.012   1.779
 3722SOL    HW114886   0.826   5.002   1.840
 3722SOL    HW214887   0.692   4.944   1.804
 3722SOL     MW14888   0.754   5.003   1.789
 3723SOL     OW14889   0.947   5.897   1.725
 3723SOL    HW114890   1.022   5.854   1.768
 3723SOL    HW214891   0.944   5.858   1.639
 3723SOL     MW14892   0.956   5.887   1.720
 3724SOL     OW14893   2.890   2.966   4.255
 3724SOL    HW114894   2.860   2.958   4.346
 3724SOL    HW214895   2.819   3.010   4.210
 3724SOL     MW14896   2.878   2.970   4.261
 3725SOL     OW14897   3.003   1.839   5.443
 3725SOL    HW114898   2.916   1.804   5.422
 3725SOL    HW214899   2.986   1.923   5.483
 3725SOL     MW14900   2.991   1.845   5.445
 3726SOL     OW14901   4.977   0.293   2.107
 3726SOL    HW114902   4.910   0.245   2.058
 3726SOL    HW214903   5.030   0.225   2.146
 3726SOL     MW14904   4.975   0.279   2.105
 3727SOL     OW14905   3.903   5.533   0.977
 3727SOL    HW114906   3.923   5.448   0.936
 3727SOL    HW214907   3.886   5.512   1.068
 3727SOL     MW14908   3.904   5.520   0.983
 3728SOL     OW14909   1.906   3.048   2.719
 3728SOL    HW114910   1.972   3.116   2.733
 3728SOL    HW214911   1.954   2.977   2.679
 3728SOL     MW14912   1.920   3.047   2.716
 3729SOL     OW14913   2.823   5.129   6.103
 3729SOL    HW114914   2.860   5.082   6.028
 3729SOL    HW214915   2.891   5.190   6.128
 3729SOL     MW14916   2.836   5.130   6.097
 3730SOL     OW14917   4.742   4.077   2.872
 3730SOL    HW114918   4.774   4.015   2.939
 3730SOL    HW214919   4.821   4.121   2.843
 3730SOL     MW14920   4.756   4.074   2.877
 3731SOL     OW14921   4.189   1.901   5.159
 3731SOL    HW114922   4.205   1.807   5.149
 3731SOL    HW214923   4.238   1.941   5.088
 3731SOL     MW14924   4.197   1.894   5.150
 3732SOL     OW14925   3.603   5.980   1.657
 3732SOL    HW114926   3.681   5.924   1.669
 3732SOL    HW214927   3.591   5.983   1.563
 3732SOL     MW14928   3.611   5.973   1.648
 3733SOL     OW14929   1.859   1.784   5.520
 3733SOL    HW114930   1.925   1.739   5.575
 3733SOL    HW214931   1.856   1.872   5.555
 3733SOL     MW14932   1.867   1.789   5.531
 3734SOL     OW14933   1.522   0.971   3.751
 3734SOL    HW114934   1.596   0.988   3.691
 3734SOL    HW214935   1.556   0.996   3.837
 3734SOL     MW14936   1.535   0.976   3.754
 3735SOL     OW14937   3.051   2.348   3.073
 3735SOL    HW114938   3.090   2.261   3.084
 3735SOL    HW214939   3.017   2.369   3.159
 3735SOL     MW14940   3.052   2.340   3.084
 3736SOL     OW14941   1.386   4.114   3.807
 3736SOL    HW114942   1.333   4.189   3.839
 3736SOL    HW214943   1.396   4.131   3.714
 3736SOL     MW14944   1.380   4.125   3.800
 3737SOL     OW14945   2.971   5.124   4.674
 3737SOL    HW114946   2.932   5.185   4.610
 3737SOL    HW214947   3.057   5.161   4.692
 3737SOL     MW14948   2.976   5.136   4.668
 3738SOL     OW14949   5.014   1.823   0.641
 3738SOL    HW114950   5.083   1.884   0.614
 3738SOL    HW214951   5.000   1.843   0.733
 3738SOL     MW14952   5.021   1.833   0.649
 3739SOL     OW14953   4.245   3.551   3.319
 3739SOL    HW114954   4.253   3.618   3.388
 3739SOL    HW214955   4.335   3.533   3.294
 3739SOL     MW14956   4.257   3.557   3.324
 3740SOL     OW14957   5.557   1.934   1.881
 3740SOL    HW114958   5.471   1.966   1.908
 3740SOL    HW214959   5.617   1.973   1.943
 3740SOL     MW14960   5.554   1.942   1.891
 3741SOL     OW14961   0.291   1.752   3.256
 3741SOL    HW114962   0.247   1.814   3.197
 3741SOL    HW214963   0.375   1.737   3.215
 3741SOL     MW14964   0.295   1.757   3.244
 3742SOL     OW14965   0.587   1.705   2.826
 3742SOL    HW114966   0.592   1.790   2.780
 3742SOL    HW214967   0.576   1.729   2.917
 3742SOL     MW14968   0.586   1.718   2.831
 3743SOL     OW14969   0.519   1.443   2.356
 3743SOL    HW114970   0.523   1.539   2.366
 3743SOL    HW214971   0.478   1.430   2.272
 3743SOL     MW14972   0.515   1.453   2.348
 3744SOL     OW14973   0.070   1.924   4.690
 3744SOL    HW114974   0.130   1.998   4.676
 3744SOL    HW214975   0.098   1.887   4.773
 3744SOL     MW14976   0.081   1.929   4.698
 3745SOL     OW14977   0.909   6.083   2.351
 3745SOL    HW114978   0.930   5.993   2.376
 3745SOL    HW214979   0.881   6.077   2.261
 3745SOL     MW14980   0.908   6.072   2.344
 3746SOL     OW14981   0.953   3.766   5.364
 3746SOL    HW114982   1.017   3.838   5.368
 3746SOL    HW214983   0.981   3.715   5.289
 3746SOL     MW14984   0.964   3.768   5.355
 3747SOL     OW14985   3.145   4.622   1.502
 3747SOL    HW114986   3.105   4.570   1.572
 3747SOL    HW214987   3.212   4.673   1.546
 3747SOL     MW14988   3.148   4.622   1.516
 3748SOL     OW14989   0.325   1.137   4.811
 3748SOL    HW114990   0.247   1.132   4.867
 3748SOL    HW214991   0.295   1.102   4.727
 3748SOL     MW14992   0.312   1.132   4.808
 3749SOL     OW14993   2.080   0.886   1.769
 3749SOL    HW114994   2.163   0.919   1.732
 3749SOL    HW214995   2.048   0.958   1.821
 3749SOL     MW14996   2.086   0.899   1.770
 3750SOL     OW14997   5.503   1.135   3.648
 3750SOL    HW114998   5.515   1.048   3.688
 3750SOL    HW214999   5.471   1.117   3.561
 3750SOL     MW15000   5.500   1.123   3.643
 3751SOL     OW15001   2.293   0.137   3.577
 3751SOL    HW115002   2.345   0.062   3.549
 3751SOL    HW215003   2.283   0.189   3.499
 3751SOL     MW15004   2.298   0.134   3.564
 3752SOL     OW15005   5.079   0.760   5.882
 3752SOL    HW115006   5.052   0.671   5.857
 3752SOL    HW215007   5.130   0.747   5.962
 3752SOL     MW15008   5.082   0.747   5.889
 3753SOL     OW15009   1.391   2.503   0.199
 3753SOL    HW115010   1.353   2.469   0.280
 3753SOL    HW215011   1.371   2.437   0.134
 3753SOL     MW15012   1.384   2.491   0.201
 3754SOL     OW15013   5.648   2.186   2.561
 3754SOL    HW115014   5.693   2.103   2.580
 3754SOL    HW215015   5.713   2.252   2.580
 3754SOL     MW15016   5.661   2.183   2.565
 3755SOL     OW15017   4.242   0.231   0.310
 3755SOL    HW115018   4.188   0.296   0.263
 3755SOL    HW215019   4.234   0.256   0.401
 3755SOL     MW15020   4.235   0.242   0.315
 3756SOL     OW15021   5.875   5.477   4.082
 3756SOL    HW115022   5.927   5.539   4.133
 3756SOL    HW215023   5.806   5.529   4.044
 3756SOL     MW15024   5.873   5.491   4.084
 3757SOL     OW15025   3.164   1.742   0.410
 3757SOL    HW115026   3.235   1.776   0.465
 3757SOL    HW215027   3.115   1.819   0.385
 3757SOL     MW15028   3.167   1.756   0.414
 3758SOL     OW15029   2.320   2.411   5.458
 3758SOL    HW115030   2.257   2.359   5.508
 3758SOL    HW215031   2.272   2.489   5.433
 3758SOL     MW15032   2.307   2.414   5.461
 3759SOL     OW15033   2.774   5.207   1.217
 3759SOL    HW115034   2.833   5.282   1.231
 3759SOL    HW215035   2.711   5.238   1.154
 3759SOL     MW15036   2.774   5.220   1.212
 3760SOL     OW15037   1.522   0.472   5.925
 3760SOL    HW115038   1.532   0.558   5.968
 3760SOL    HW215039   1.608   0.451   5.893
 3760SOL     MW15040   1.533   0.480   5.926
 3761SOL     OW15041   6.112   5.703   5.932
 3761SOL    HW115042   6.040   5.644   5.955
 3761SOL    HW215043   6.083   5.788   5.960
 3761SOL     MW15044   6.100   5.706   5.938
 3762SOL     OW15045   4.822   2.081   1.227
 3762SOL    HW115046   4.760   2.125   1.287
 3762SOL    HW215047   4.871   2.152   1.188
 3762SOL     MW15048   4.820   2.095   1.230
 3763SOL     OW15049   5.237   1.823   3.949
 3763SOL    HW115050   5.328   1.845   3.973
 3763SOL    HW215051   5.241   1.805   3.856
 3763SOL     MW15052   5.249   1.824   3.941
 3764SOL     OW15053   5.727   3.315   0.252
 3764SOL    HW115054   5.742   3.236   0.199
 3764SOL    HW215055   5.737   3.286   0.341
 3764SOL     MW15056   5.730   3.302   0.256
 3765SOL     OW15057   0.150   3.183   0.684
 3765SOL    HW115058   0.078   3.156   0.627
 3765SOL    HW215059   0.124   3.268   0.717
 3765SOL     MW15060   0.138   3.189   0.681
 3766SOL     OW15061   2.761   4.284   0.570
 3766SOL    HW115062   2.694   4.327   0.625
 3766SOL    HW215063   2.837   4.278   0.626
 3766SOL     MW15064   2.762   4.289   0.583
 3767SOL     OW15065   0.176   3.375   5.720
 3767SOL    HW115066   0.099   3.323   5.747
 3767SOL    HW215067   0.185   3.356   5.628
 3767SOL     MW15068   0.168   3.367   5.713
 3768SOL     OW15069   1.770   2.490   1.743
 3768SOL    HW115070   1.737   2.437   1.670
 3768SOL    HW215071   1.747   2.579   1.719
 3768SOL     MW15072   1.764   2.494   1.731
 3769SOL     OW15073   5.240   5.530   2.668
 3769SOL    HW115074   5.315   5.471   2.680
 3769SOL    HW215075   5.275   5.602   2.618
 3769SOL     MW15076   5.253   5.531   2.664
 3770SOL     OW15077   0.432   3.844   0.614
 3770SOL    HW115078   0.431   3.748   0.602
 3770SOL    HW215079   0.512   3.872   0.572
 3770SOL     MW15080   0.441   3.835   0.607
 3771SOL     OW15081   2.737   2.816   0.236
 3771SOL    HW115082   2.791   2.749   0.279
 3771SOL    HW215083   2.772   2.823   0.148
 3771SOL     MW15084   2.747   2.809   0.231
 3772SOL     OW15085   3.251   5.189   4.282
 3772SOL    HW115086   3.164   5.205   4.244
 3772SOL    HW215087   3.239   5.204   4.375
 3772SOL     MW15088   3.239   5.192   4.288
 3773SOL     OW15089   3.978   3.934   5.170
 3773SOL    HW115090   4.033   4.006   5.203
 3773SOL    HW215091   3.998   3.931   5.077
 3773SOL     MW15092   3.987   3.942   5.163
 3774SOL     OW15093   3.991   2.746   1.080
 3774SOL    HW115094   4.079   2.781   1.099
 3774SOL    HW215095   3.987   2.746   0.985
 3774SOL     MW15096   4.001   2.751   1.071
 3775SOL     OW15097   4.510   5.913   1.563
 3775SOL    HW115098   4.531   5.820   1.567
 3775SOL    HW215099   4.500   5.939   1.654
 3775SOL     MW15100   4.512   5.905   1.574
 3776SOL     OW15101   4.010   5.818   4.347
 3776SOL    HW115102   4.027   5.885   4.280
 3776SOL    HW215103   3.920   5.793   4.333
 3776SOL     MW15104   4.002   5.823   4.337
 3777SOL     OW15105   0.863   3.925   4.537
 3777SOL    HW115106   0.806   4.003   4.530
 3777SOL    HW215107   0.813   3.865   4.592
 3777SOL     MW15108   0.850   3.928   4.543
 3778SOL     OW15109   4.197   3.301   3.789
 3778SOL    HW115110   4.134   3.239   3.828
 3778SOL    HW215111   4.158   3.387   3.806
 3778SOL     MW15112   4.184   3.304   3.796
 3779SOL     OW15113   1.047   6.021   1.096
 3779SOL    HW115114   1.087   6.109   1.092
 3779SOL    HW215115   1.019   6.012   1.186
 3779SOL     MW15116   1.048   6.031   1.106
 3780SOL     OW15117   3.735   2.612   1.091
 3780SOL    HW115118   3.720   2.536   1.034
 3780SOL    HW215119   3.680   2.596   1.166
 3780SOL     MW15120   3.727   2.601   1.093
 3781SOL     OW15121   4.329   0.812   3.973
 3781SOL    HW115122   4.283   0.895   3.993
 3781SOL    HW215123   4.377   0.831   3.894
 3781SOL     MW15124   4.329   0.824   3.966
 3782SOL     OW15125   2.007   3.126   0.757
 3782SOL    HW115126   2.076   3.182   0.795
 3782SOL    HW215127   2.023   3.129   0.663
 3782SOL     MW15128   2.018   3.133   0.750
 3783SOL     OW15129   1.894   4.386   2.426
 3783SOL    HW115130   1.839   4.397   2.504
 3783SOL    HW215131   1.888   4.469   2.381
 3783SOL     MW15132   1.887   4.397   2.430
 3784SOL     OW15133   2.423   0.480   0.408
 3784SOL    HW115134   2.384   0.431   0.481
 3784SOL    HW215135   2.506   0.436   0.393
 3784SOL     MW15136   2.428   0.468   0.415
 3785SOL     OW15137   5.740   4.151   2.854
 3785SOL    HW115138   5.757   4.176   2.945
 3785SOL    HW215139   5.720   4.058   2.858
 3785SOL     MW15140   5.739   4.143   2.865
 3786SOL     OW15141   0.515   4.134   5.959
 3786SOL    HW115142   0.496   4.042   5.939
 3786SOL    HW215143   0.514   4.137   6.054
 3786SOL     MW15144   0.513   4.123   5.968
 3787SOL     OW15145   0.838   3.373   3.750
 3787SOL    HW115146   0.901   3.309   3.786
 3787SOL    HW215147   0.879   3.404   3.671
 3787SOL     MW15148   0.850   3.369   3.745
 3788SOL     OW15149   2.032   4.258   5.890
 3788SOL    HW115150   2.116   4.212   5.875
 3788SOL    HW215151   2.043   4.299   5.974
 3788SOL     MW15152   2.044   4.257   5.898
 3789SOL     OW15153   4.468   4.482   0.876
 3789SOL    HW115154   4.376   4.462   0.855
 3789SOL    HW215155   4.493   4.547   0.812
 3789SOL     MW15156   4.459   4.487   0.866
 3790SOL     OW15157   3.170   5.332   3.538
 3790SOL    HW115158   3.082   5.304   3.511
 3790SOL    HW215159   3.180   5.297   3.626
 3790SOL     MW15160   3.160   5.325   3.545
 3791SOL     OW15161   0.036   0.961   1.374
 3791SOL    HW115162   0.027   1.012   1.293
 3791SOL    HW215163  -0.053   0.932   1.393
 3791SOL     MW15164   0.024   0.964   1.366
 3792SOL     OW15165   4.199   1.701   3.376
 3792SOL    HW115166   4.234   1.653   3.452
 3792SOL    HW215167   4.152   1.774   3.414
 3792SOL     MW15168   4.198   1.704   3.390
 3793SOL     OW15169   3.932   2.921   2.190
 3793SOL    HW115170   3.876   2.949   2.117
 3793SOL    HW215171   3.989   2.995   2.205
 3793SOL     MW15172   3.932   2.933   2.183
 3794SOL     OW15173   3.745   3.860   5.818
 3794SOL    HW115174   3.741   3.812   5.902
 3794SOL    HW215175   3.822   3.915   5.826
 3794SOL     MW15176   3.753   3.861   5.830
 3795SOL     OW15177   3.226   0.036   0.676
 3795SOL    HW115178   3.132   0.054   0.667
 3795SOL    HW215179   3.229  -0.047   0.722
 3795SOL     MW15180   3.215   0.028   0.680
 3796SOL     OW15181   4.294   5.184   1.201
 3796SOL    HW115182   4.223   5.210   1.260
 3796SOL    HW215183   4.290   5.090   1.200
 3796SOL     MW15184   4.285   5.176   1.208
 3797SOL     OW15185   3.998   3.381   4.572
 3797SOL    HW115186   4.055   3.432   4.630
 3797SOL    HW215187   4.036   3.394   4.486
 3797SOL     MW15188   4.009   3.389   4.569
 3798SOL     OW15189   6.005   1.315   4.936
 3798SOL    HW115190   6.018   1.289   5.028
 3798SOL    HW215191   5.919   1.354   4.935
 3798SOL     MW15192   5.997   1.317   4.947
 3799SOL     OW15193   1.174   4.141   4.159
 3799SOL    HW115194   1.258   4.181   4.181
 3799SOL    HW215195   1.151   4.090   4.235
 3799SOL     MW15196   1.182   4.140   4.170
 3800SOL     OW15197   5.487   0.397   1.503
 3800SOL    HW115198   5.400   0.424   1.536
 3800SOL    HW215199   5.530   0.360   1.579
 3800SOL     MW15200   5.481   0.396   1.516
 3801SOL     OW15201   2.467   4.462   1.422
 3801SOL    HW115202   2.402   4.480   1.491
 3801SOL    HW215203   2.469   4.368   1.415
 3801SOL     MW15204   2.459   4.453   1.430
 3802SOL     OW15205   3.328   3.584   2.363
 3802SOL    HW115206   3.308   3.492   2.343
 3802SOL    HW215207   3.298   3.596   2.452
 3802SOL     MW15208   3.322   3.574   2.371
 3803SOL     OW15209   6.001   2.422   3.932
 3803SOL    HW115210   5.934   2.368   3.975
 3803SOL    HW215211   6.007   2.387   3.844
 3803SOL     MW15212   5.993   2.411   3.927
 3804SOL     OW15213   4.751   1.636   4.335
 3804SOL    HW115214   4.835   1.600   4.307
 3804SOL    HW215215   4.686   1.590   4.283
 3804SOL     MW15216   4.753   1.626   4.326
 3805SOL     OW15217   5.558   4.603   5.017
 3805SOL    HW115218   5.467   4.616   5.047
 3805SOL    HW215219   5.554   4.618   4.923
 3805SOL     MW15220   5.546   4.606   5.009
 3806SOL     OW15221   4.731   0.129   4.734
 3806SOL    HW115222   4.636   0.142   4.744
 3806SOL    HW215223   4.755   0.075   4.808
 3806SOL     MW15224   4.722   0.124   4.744
 3807SOL     OW15225   5.299   3.795   1.622
 3807SOL    HW115226   5.219   3.755   1.658
 3807SOL    HW215227   5.284   3.797   1.528
 3807SOL     MW15228   5.288   3.790   1.615
 3808SOL     OW15229   2.521   5.035   2.825
 3808SOL    HW115230   2.562   4.966   2.878
 3808SOL    HW215231   2.524   5.001   2.736
 3808SOL     MW15232   2.526   5.023   2.821
 3809SOL     OW15233   2.649   4.820   5.821
 3809SOL    HW115234   2.643   4.902   5.770
 3809SOL    HW215235   2.567   4.776   5.803
 3809SOL     MW15236   2.639   4.825   5.813
 3810SOL     OW15237   0.308   2.685   2.698
 3810SOL    HW115238   0.372   2.626   2.740
 3810SOL    HW215239   0.283   2.640   2.618
 3810SOL     MW15240   0.313   2.673   2.694
 3811SOL     OW15241   0.472   4.213   0.485
 3811SOL    HW115242   0.436   4.295   0.449
 3811SOL    HW215243   0.399   4.176   0.534
 3811SOL     MW15244   0.459   4.219   0.486
 3812SOL     OW15245   0.871   2.093   0.298
 3812SOL    HW115246   0.846   2.009   0.260
 3812SOL    HW215247   0.839   2.089   0.387
 3812SOL     MW15248   0.864   2.082   0.304
 3813SOL     OW15249   1.486   4.686   0.052
 3813SOL    HW115250   1.468   4.780   0.064
 3813SOL    HW215251   1.472   4.672  -0.041
 3813SOL     MW15252   1.482   4.696   0.042
 3814SOL     OW15253   5.832   4.561   3.883
 3814SOL    HW115254   5.838   4.538   3.789
 3814SOL    HW215255   5.863   4.484   3.928
 3814SOL     MW15256   5.836   4.549   3.877
 3815SOL     OW15257   0.333   5.548   5.665
 3815SOL    HW115258   0.406   5.558   5.728
 3815SOL    HW215259   0.332   5.630   5.618
 3815SOL     MW15260   0.342   5.559   5.667
 3816SOL     OW15261   4.197   0.189   4.350
 3816SOL    HW115262   4.234   0.264   4.302
 3816SOL    HW215263   4.264   0.168   4.414
 3816SOL     MW15264   4.210   0.196   4.352
 3817SOL     OW15265  -0.029   5.702   1.525
 3817SOL    HW115266   0.043   5.710   1.588
 3817SOL    HW215267   0.013   5.684   1.443
 3817SOL     MW15268  -0.015   5.701   1.523
 3818SOL     OW15269   4.570   3.016   4.048
 3818SOL    HW115270   4.506   3.068   4.098
 3818SOL    HW215271   4.571   3.056   3.963
 3818SOL     MW15272   4.562   3.027   4.044
 3819SOL     OW15273   3.086   2.475   1.807
 3819SOL    HW115274   3.164   2.419   1.811
 3819SOL    HW215275   3.044   2.450   1.726
 3819SOL     MW15276   3.091   2.465   1.798
 3820SOL     OW15277   1.130   1.043   0.208
 3820SOL    HW115278   1.055   1.063   0.151
 3820SOL    HW215279   1.095   1.050   0.296
 3820SOL     MW15280   1.117   1.047   0.212
 3821SOL     OW15281   1.413   3.029   5.417
 3821SOL    HW115282   1.498   3.021   5.372
 3821SOL    HW215283   1.355   2.973   5.367
 3821SOL     MW15284   1.417   3.021   5.406
 3822SOL     OW15285   1.663   3.839   5.731
 3822SOL    HW115286   1.651   3.931   5.706
 3822SOL    HW215287   1.645   3.837   5.824
 3822SOL     MW15288   1.659   3.850   5.739
 3823SOL     OW15289   0.092   4.457   3.406
 3823SOL    HW115290   0.004   4.439   3.442
 3823SOL    HW215291   0.077   4.465   3.312
 3823SOL     MW15292   0.079   4.456   3.399
 3824SOL     OW15293   5.111   2.232   5.555
 3824SOL    HW115294   5.023   2.214   5.588
 3824SOL    HW215295   5.106   2.211   5.463
 3824SOL     MW15296   5.100   2.228   5.548
 3825SOL     OW15297   3.014   1.877   3.682
 3825SOL    HW115298   2.938   1.937   3.674
 3825SOL    HW215299   2.999   1.832   3.764
 3825SOL     MW15300   3.003   1.879   3.691
 3826SOL     OW15301   3.476   1.913   1.974
 3826SOL    HW115302   3.455   1.873   2.059
 3826SOL    HW215303   3.543   1.857   1.937
 3826SOL     MW15304   3.481   1.902   1.980
 3827SOL     OW15305   0.968   4.793   2.743
 3827SOL    HW115306   0.974   4.843   2.825
 3827SOL    HW215307   0.964   4.702   2.770
 3827SOL     MW15308   0.968   4.788   2.756
 3828SOL     OW15309   0.498   3.013   5.272
 3828SOL    HW115310   0.539   2.976   5.351
 3828SOL    HW215311   0.532   3.102   5.268
 3828SOL     MW15312   0.507   3.019   5.282
 3829SOL     OW15313   0.499   0.571   1.819
 3829SOL    HW115314   0.474   0.594   1.729
 3829SOL    HW215315   0.446   0.495   1.840
 3829SOL     MW15316   0.490   0.565   1.811
 3830SOL     OW15317   4.786   4.616   4.400
 3830SOL    HW115318   4.851   4.687   4.402
 3830SOL    HW215319   4.726   4.642   4.332
 3830SOL     MW15320   4.787   4.628   4.392
 3831SOL     OW15321   2.346   2.674   0.198
 3831SOL    HW115322   2.359   2.607   0.265
 3831SOL    HW215323   2.404   2.649   0.128
 3831SOL     MW15324   2.354   2.663   0.198
 3832SOL     OW15325   3.362   2.244   5.719
 3832SOL    HW115326   3.448   2.272   5.753
 3832SOL    HW215327   3.300   2.272   5.786
 3832SOL     MW15328   3.365   2.251   5.731
 3833SOL     OW15329   3.746   5.921   3.303
 3833SOL    HW115330   3.813   5.983   3.333
 3833SOL    HW215331   3.664   5.957   3.334
 3833SOL     MW15332   3.744   5.933   3.310
 3834SOL     OW15333   5.184   5.528   4.649
 3834SOL    HW115334   5.181   5.441   4.610
 3834SOL    HW215335   5.185   5.512   4.743
 3834SOL     MW15336   5.184   5.516   4.656
 3835SOL     OW15337   4.814   5.560   0.655
 3835SOL    HW115338   4.746   5.614   0.614
 3835SOL    HW215339   4.797   5.567   0.748
 3835SOL     MW15340   4.804   5.567   0.661
 3836SOL     OW15341   5.425   0.912   3.408
 3836SOL    HW115342   5.405   0.821   3.431
 3836SOL    HW215343   5.497   0.905   3.346
 3836SOL     MW15344   5.431   0.900   3.403
 3837SOL     OW15345   2.480   1.469   5.227
 3837SOL    HW115346   2.449   1.471   5.318
 3837SOL    HW215347   2.418   1.524   5.181
 3837SOL     MW15348   2.469   1.476   5.233
 3838SOL     OW15349   6.044   2.891   1.488
 3838SOL    HW115350   5.960   2.847   1.504
 3838SOL    HW215351   6.103   2.820   1.466
 3838SOL     MW15352   6.041   2.877   1.487
 3839SOL     OW15353   2.728   4.175   1.497
 3839SOL    HW115354   2.642   4.199   1.461
 3839SOL    HW215355   2.715   4.174   1.591
 3839SOL     MW15356   2.716   4.178   1.503
 3840SOL     OW15357   4.476   0.414   3.296
 3840SOL    HW115358   4.508   0.363   3.221
 3840SOL    HW215359   4.392   0.375   3.316
 3840SOL     MW15360   4.470   0.403   3.289
 3841SOL     OW15361   5.353   4.019   0.815
 3841SOL    HW115362   5.309   4.070   0.884
 3841SOL    HW215363   5.446   4.034   0.830
 3841SOL     MW15364   5.359   4.027   0.825
 3842SOL     OW15365   0.518   1.106   5.944
 3842SOL    HW115366   0.614   1.100   5.949
 3842SOL    HW215367   0.501   1.148   5.861
 3842SOL     MW15368   0.528   1.110   5.935
 3843SOL     OW15369   4.028   2.434   0.609
 3843SOL    HW115370   4.051   2.350   0.649
 3843SOL    HW215371   4.110   2.481   0.604
 3843SOL     MW15372   4.040   2.429   0.613
 3844SOL     OW15373   4.195   5.197   0.201
 3844SOL    HW115374   4.180   5.214   0.295
 3844SOL    HW215375   4.278   5.238   0.183
 3844SOL     MW15376   4.203   5.204   0.210
 3845SOL     OW15377   5.715   4.146   5.002
 3845SOL    HW115378   5.786   4.081   5.015
 3845SOL    HW215379   5.641   4.094   4.974
 3845SOL     MW15380   5.715   4.132   5.000
 3846SOL     OW15381   2.506   4.601   5.421
 3846SOL    HW115382   2.457   4.525   5.454
 3846SOL    HW215383   2.486   4.604   5.328
 3846SOL     MW15384   2.498   4.592   5.414
 3847SOL     OW15385   4.003   5.463   2.726
 3847SOL    HW115386   4.092   5.493   2.748
 3847SOL    HW215387   4.011   5.369   2.721
 3847SOL     MW15388   4.015   5.455   2.728
 3848SOL     OW15389   1.445   2.937   0.604
 3848SOL    HW115390   1.526   2.960   0.650
 3848SOL    HW215391   1.444   2.996   0.529
 3848SOL     MW15392   1.455   2.947   0.601
 3849SOL     OW15393   0.909   5.081   6.032
 3849SOL    HW115394   0.907   5.124   6.119
 3849SOL    HW215395   0.896   4.989   6.051
 3849SOL     MW15396   0.907   5.076   6.045
 3850SOL     OW15397   1.047   0.560   5.266
 3850SOL    HW115398   1.017   0.468   5.258
 3850SOL    HW215399   1.071   0.568   5.358
 3850SOL     MW15400   1.046   0.549   5.276
 3851SOL     OW15401   1.491   3.837   2.362
 3851SOL    HW115402   1.462   3.898   2.430
 3851SOL    HW215403   1.413   3.817   2.313
 3851SOL     MW15404   1.478   3.842   2.364
 3852SOL     OW15405   2.408   1.835   4.874
 3852SOL    HW115406   2.475   1.786   4.921
 3852SOL    HW215407   2.397   1.788   4.792
 3852SOL     MW15408   2.415   1.824   4.870
 3853SOL     OW15409   0.727   2.832   3.925
 3853SOL    HW115410   0.803   2.827   3.866
 3853SOL    HW215411   0.764   2.860   4.008
 3853SOL     MW15412   0.741   2.835   3.928
 3854SOL     OW15413   0.490   0.303   4.472
 3854SOL    HW115414   0.526   0.301   4.383
 3854SOL    HW215415   0.551   0.356   4.521
 3854SOL     MW15416   0.502   0.309   4.467
 3855SOL     OW15417   0.913   4.682   3.192
 3855SOL    HW115418   0.991   4.739   3.184
 3855SOL    HW215419   0.894   4.682   3.285
 3855SOL     MW15420   0.920   4.689   3.202
 3856SOL     OW15421   4.608   1.842   4.058
 3856SOL    HW115422   4.636   1.935   4.054
 3856SOL    HW215423   4.593   1.819   3.967
 3856SOL     MW15424   4.610   1.851   4.046
 3857SOL     OW15425   4.966   2.246   2.382
 3857SOL    HW115426   5.035   2.240   2.450
 3857SOL    HW215427   5.014   2.246   2.300
 3857SOL     MW15428   4.980   2.245   2.381
 3858SOL     OW15429   5.009   3.237   0.449
 3858SOL    HW115430   4.942   3.188   0.402
 3858SOL    HW215431   4.964   3.313   0.482
 3858SOL     MW15432   4.996   3.240   0.447
 3859SOL     OW15433   1.599   2.411   0.242
 3859SOL    HW115434   1.527   2.359   0.205
 3859SOL    HW215435   1.675   2.354   0.236
 3859SOL     MW15436   1.599   2.398   0.236
 3860SOL     OW15437   3.567   1.298   4.734
 3860SOL    HW115438   3.596   1.234   4.668
 3860SOL    HW215439   3.490   1.337   4.696
 3860SOL     MW15440   3.562   1.295   4.722
 3861SOL     OW15441   0.029   2.038   2.537
 3861SOL    HW115442   0.064   2.090   2.610
 3861SOL    HW215443  -0.039   1.985   2.577
 3861SOL     MW15444   0.025   2.038   2.551
 3862SOL     OW15445   0.871   3.936   5.507
 3862SOL    HW115446   0.852   3.905   5.418
 3862SOL    HW215447   0.857   4.030   5.503
 3862SOL     MW15448   0.867   3.943   5.496
 3863SOL     OW15449   2.086   5.375   2.150
 3863SOL    HW115450   2.054   5.461   2.120
 3863SOL    HW215451   2.052   5.368   2.238
 3863SOL     MW15452   2.078   5.385   2.157
 3864SOL     OW15453   4.391   1.993   5.827
 3864SOL    HW115454   4.342   2.020   5.749
 3864SOL    HW215455   4.444   2.069   5.848
 3864SOL     MW15456   4.391   2.005   5.820
 3865SOL     OW15457   3.194   4.168   3.093
 3865SOL    HW115458   3.151   4.249   3.066
 3865SOL    HW215459   3.168   4.157   3.184
 3865SOL     MW15460   3.186   4.177   3.101
 3866SOL     OW15461   4.107   0.200   4.708
 3866SOL    HW115462   4.186   0.204   4.762
 3866SOL    HW215463   4.136   0.159   4.628
 3866SOL     MW15464   4.120   0.196   4.705
 3867SOL     OW15465   0.243   1.150   1.158
 3867SOL    HW115466   0.280   1.233   1.191
 3867SOL    HW215467   0.255   1.154   1.064
 3867SOL     MW15468   0.249   1.160   1.151
 3868SOL     OW15469   0.778   5.823   0.574
 3868SOL    HW115470   0.734   5.829   0.488
 3868SOL    HW215471   0.721   5.873   0.632
 3868SOL     MW15472   0.766   5.830   0.570
 3869SOL     OW15473   3.053   2.122   2.331
 3869SOL    HW115474   3.024   2.205   2.293
 3869SOL    HW215475   3.033   2.129   2.424
 3869SOL     MW15476   3.047   2.133   2.338
 3870SOL     OW15477   0.416   0.915   2.631
 3870SOL    HW115478   0.470   0.987   2.665
 3870SOL    HW215479   0.334   0.923   2.678
 3870SOL     MW15480   0.413   0.925   2.641
 3871SOL     OW15481   4.838   1.259   3.639
 3871SOL    HW115482   4.913   1.305   3.678
 3871SOL    HW215483   4.790   1.226   3.714
 3871SOL     MW15484   4.842   1.261   3.653
 3872SOL     OW15485   3.673   4.505   4.505
 3872SOL    HW115486   3.595   4.499   4.562
 3872SOL    HW215487   3.637   4.525   4.419
 3872SOL     MW15488   3.659   4.507   4.502
 3873SOL     OW15489   0.471   5.904   3.895
 3873SOL    HW115490   0.391   5.880   3.943
 3873SOL    HW215491   0.539   5.851   3.934
 3873SOL     MW15492   0.469   5.895   3.905
 3874SOL     OW15493   3.524   2.340   2.205
 3874SOL    HW115494   3.446   2.386   2.174
 3874SOL    HW215495   3.518   2.345   2.300
 3874SOL     MW15496   3.514   2.346   2.212
 3875SOL     OW15497   4.626   1.921   6.004
 3875SOL    HW115498   4.547   1.869   5.988
 3875SOL    HW215499   4.689   1.858   6.035
 3875SOL     MW15500   4.624   1.908   6.006
 3876SOL     OW15501   3.590   0.794   2.678
 3876SOL    HW115502   3.652   0.857   2.641
 3876SOL    HW215503   3.587   0.814   2.770
 3876SOL     MW15504   3.597   0.804   2.684
 3877SOL     OW15505   4.277   1.646   0.428
 3877SOL    HW115506   4.280   1.558   0.467
 3877SOL    HW215507   4.281   1.630   0.334
 3877SOL     MW15508   4.278   1.633   0.422
 3878SOL     OW15509   3.109   2.127   5.223
 3878SOL    HW115510   3.195   2.088   5.207
 3878SOL    HW215511   3.052   2.053   5.239
 3878SOL     MW15512   3.113   2.114   5.223
 3879SOL     OW15513   2.334   2.093   1.976
 3879SOL    HW115514   2.253   2.103   2.027
 3879SOL    HW215515   2.305   2.083   1.887
 3879SOL     MW15516   2.321   2.093   1.972
 3880SOL     OW15517   1.239   5.724   1.035
 3880SOL    HW115518   1.260   5.808   0.993
 3880SOL    HW215519   1.243   5.743   1.128
 3880SOL     MW15520   1.242   5.737   1.041
 3881SOL     OW15521   1.652   6.026   5.173
 3881SOL    HW115522   1.676   5.936   5.198
 3881SOL    HW215523   1.723   6.054   5.116
 3881SOL     MW15524   1.664   6.018   5.169
 3882SOL     OW15525   3.003   4.490   4.996
 3882SOL    HW115526   3.005   4.577   5.036
 3882SOL    HW215527   3.007   4.507   4.902
 3882SOL     MW15528   3.004   4.503   4.989
 3883SOL     OW15529   0.646   5.221   0.668
 3883SOL    HW115530   0.553   5.245   0.666
 3883SOL    HW215531   0.660   5.191   0.757
 3883SOL     MW15532   0.636   5.220   0.679
 3884SOL     OW15533   5.951   3.353   0.639
 3884SOL    HW115534   5.909   3.363   0.726
 3884SOL    HW215535   5.894   3.402   0.581
 3884SOL     MW15536   5.939   3.360   0.643
 3885SOL     OW15537   4.105   0.381   2.473
 3885SOL    HW115538   4.132   0.395   2.565
 3885SOL    HW215539   4.030   0.438   2.462
 3885SOL     MW15540   4.099   0.389   2.483
 3886SOL     OW15541   3.819   2.629   1.475
 3886SOL    HW115542   3.803   2.717   1.511
 3886SOL    HW215543   3.769   2.571   1.531
 3886SOL     MW15544   3.811   2.633   1.486
 3887SOL     OW15545   0.575   2.229   3.657
 3887SOL    HW115546   0.528   2.153   3.622
 3887SOL    HW215547   0.646   2.243   3.595
 3887SOL     MW15548   0.578   2.221   3.645
 3888SOL     OW15549   2.458   5.666   4.392
 3888SOL    HW115550   2.374   5.713   4.390
 3888SOL    HW215551   2.523   5.734   4.397
 3888SOL     MW15552   2.456   5.679   4.393
 3889SOL     OW15553   4.566   0.055   5.957
 3889SOL    HW115554   4.522   0.113   5.895
 3889SOL    HW215555   4.539   0.086   6.042
 3889SOL     MW15556   4.557   0.066   5.960
 3890SOL     OW15557   0.449   1.234   3.459
 3890SOL    HW115558   0.406   1.150   3.440
 3890SOL    HW215559   0.451   1.239   3.553
 3890SOL     MW15560   0.444   1.224   3.468
 3891SOL     OW15561   0.945   1.108   5.965
 3891SOL    HW115562   0.865   1.122   5.914
 3891SOL    HW215563   1.008   1.075   5.901
 3891SOL     MW15564   0.943   1.106   5.951
 3892SOL     OW15565   5.331   5.288   5.557
 3892SOL    HW115566   5.362   5.379   5.549
 3892SOL    HW215567   5.243   5.297   5.590
 3892SOL     MW15568   5.325   5.300   5.560
 3893SOL     OW15569   1.205   3.482   1.197
 3893SOL    HW115570   1.283   3.442   1.156
 3893SOL    HW215571   1.221   3.473   1.290
 3893SOL     MW15572   1.217   3.476   1.203
 3894SOL     OW15573   3.938   3.945   5.386
 3894SOL    HW115574   3.874   3.976   5.451
 3894SOL    HW215575   3.898   3.969   5.303
 3894SOL     MW15576   3.925   3.952   5.384
 3895SOL     OW15577   5.428   1.103   1.983
 3895SOL    HW115578   5.463   1.187   2.015
 3895SOL    HW215579   5.496   1.070   1.926
 3895SOL     MW15580   5.440   1.109   1.980
 3896SOL     OW15581   5.664   3.322   2.300
 3896SOL    HW115582   5.730   3.290   2.239
 3896SOL    HW215583   5.713   3.344   2.378
 3896SOL     MW15584   5.678   3.321   2.302
 3897SOL     OW15585   5.183   3.998   5.682
 3897SOL    HW115586   5.108   3.962   5.731
 3897SOL    HW215587   5.155   3.993   5.592
 3897SOL     MW15588   5.170   3.993   5.678
 3898SOL     OW15589   2.150   2.198   2.795
 3898SOL    HW115590   2.189   2.111   2.813
 3898SOL    HW215591   2.169   2.248   2.874
 3898SOL     MW15592   2.157   2.193   2.807
 3899SOL     OW15593   0.748   3.879   2.538
 3899SOL    HW115594   0.748   3.847   2.448
 3899SOL    HW215595   0.839   3.897   2.557
 3899SOL     MW15596   0.759   3.877   2.529
 3900SOL     OW15597   4.290   4.706   4.347
 3900SOL    HW115598   4.379   4.704   4.311
 3900SOL    HW215599   4.304   4.725   4.439
 3900SOL     MW15600   4.303   4.708   4.354
 3901SOL     OW15601   5.948   3.113   0.819
 3901SOL    HW115602   5.858   3.102   0.786
 3901SOL    HW215603   5.974   3.199   0.786
 3901SOL     MW15604   5.940   3.122   0.811
 3902SOL     OW15605   5.627   2.285   2.761
 3902SOL    HW115606   5.602   2.192   2.759
 3902SOL    HW215607   5.716   2.287   2.730
 3902SOL     MW15608   5.634   2.274   2.757
 3903SOL     OW15609   5.401   3.728   3.682
 3903SOL    HW115610   5.441   3.807   3.643
 3903SOL    HW215611   5.343   3.696   3.614
 3903SOL     MW15612   5.399   3.734   3.669
 3904SOL     OW15613   4.463   1.971   5.580
 3904SOL    HW115614   4.437   2.058   5.549
 3904SOL    HW215615   4.543   1.986   5.628
 3904SOL     MW15616   4.469   1.983   5.582
 3905SOL     OW15617   2.843   3.436   5.254
 3905SOL    HW115618   2.915   3.387   5.295
 3905SOL    HW215619   2.835   3.397   5.168
 3905SOL     MW15620   2.851   3.426   5.249
 3906SOL     OW15621   5.962   4.754   1.457
 3906SOL    HW115622   6.047   4.778   1.419
 3906SOL    HW215623   5.899   4.808   1.411
 3906SOL     MW15624   5.965   4.764   1.447
 3907SOL     OW15625   1.787   5.973   1.243
 3907SOL    HW115626   1.827   5.886   1.237
 3907SOL    HW215627   1.860   6.033   1.231
 3907SOL     MW15628   1.800   5.969   1.241
 3908SOL     OW15629   1.871   3.609   1.122
 3908SOL    HW115630   1.942   3.583   1.182
 3908SOL    HW215631   1.800   3.551   1.144
 3908SOL     MW15632   1.871   3.599   1.132
 3909SOL     OW15633   3.225   0.846   0.208
 3909SOL    HW115634   3.317   0.825   0.188
 3909SOL    HW215635   3.225   0.864   0.301
 3909SOL     MW15636   3.237   0.845   0.217
 3910SOL     OW15637   3.063   5.780   1.752
 3910SOL    HW115638   3.054   5.830   1.834
 3910SOL    HW215639   3.100   5.842   1.691
 3910SOL     MW15640   3.066   5.794   1.755
 3911SOL     OW15641   1.958   2.898   5.985
 3911SOL    HW115642   1.883   2.897   6.045
 3911SOL    HW215643   1.922   2.925   5.902
 3911SOL     MW15644   1.945   2.901   5.983
 3912SOL     OW15645   4.603   0.225   4.991
 3912SOL    HW115646   4.618   0.311   4.950
 3912SOL    HW215647   4.600   0.244   5.084
 3912SOL     MW15648   4.605   0.238   4.997
 3913SOL     OW15649   3.224   2.783   4.524
 3913SOL    HW115650   3.311   2.785   4.564
 3913SOL    HW215651   3.164   2.787   4.597
 3913SOL     MW15652   3.227   2.784   4.537
 3914SOL     OW15653   1.172   6.036   0.570
 3914SOL    HW115654   1.202   6.051   0.480
 3914SOL    HW215655   1.156   6.124   0.604
 3914SOL     MW15656   1.174   6.049   0.563
 3915SOL     OW15657   1.695   2.895   1.759
 3915SOL    HW115658   1.603   2.898   1.786
 3915SOL    HW215659   1.692   2.888   1.665
 3915SOL     MW15660   1.684   2.894   1.751
 3916SOL     OW15661   2.052   0.896   4.017
 3916SOL    HW115662   2.004   0.959   3.961
 3916SOL    HW215663   1.988   0.829   4.035
 3916SOL     MW15664   2.039   0.896   4.012
 3917SOL     OW15665   5.085   3.159   2.199
 3917SOL    HW115666   5.088   3.063   2.192
 3917SOL    HW215667   5.044   3.175   2.283
 3917SOL     MW15668   5.081   3.149   2.208
 3918SOL     OW15669   3.908   2.554   0.926
 3918SOL    HW115670   3.918   2.649   0.916
 3918SOL    HW215671   3.969   2.518   0.863
 3918SOL     MW15672   3.916   2.562   0.917
 3919SOL     OW15673   5.016   2.222   1.207
 3919SOL    HW115674   5.074   2.156   1.247
 3919SOL    HW215675   5.021   2.204   1.114
 3919SOL     MW15676   5.024   2.212   1.201
 3920SOL     OW15677   2.571   2.865   5.401
 3920SOL    HW115678   2.664   2.869   5.376
 3920SOL    HW215679   2.571   2.869   5.495
 3920SOL     MW15680   2.582   2.866   5.409
 3921SOL     OW15681   0.588   3.008   3.104
 3921SOL    HW115682   0.531   3.001   3.181
 3921SOL    HW215683   0.534   3.051   3.038
 3921SOL     MW15684   0.575   3.012   3.106
 3922SOL     OW15685   3.056   4.814   3.372
 3922SOL    HW115686   3.011   4.844   3.292
 3922SOL    HW215687   3.077   4.723   3.354
 3922SOL     MW15688   3.053   4.807   3.360
 3923SOL     OW15689   4.199   5.470   4.914
 3923SOL    HW115690   4.144   5.484   4.992
 3923SOL    HW215691   4.205   5.555   4.874
 3923SOL     MW15692   4.193   5.482   4.919
 3924SOL     OW15693   4.200   5.808   5.056
 3924SOL    HW115694   4.193   5.903   5.042
 3924SOL    HW215695   4.289   5.787   5.030
 3924SOL     MW15696   4.210   5.817   5.051
 3925SOL     OW15697   4.533   0.906   1.090
 3925SOL    HW115698   4.606   0.912   1.152
 3925SOL    HW215699   4.554   0.970   1.023
 3925SOL     MW15700   4.544   0.914   1.089
 3926SOL     OW15701   0.735   2.625   1.007
 3926SOL    HW115702   0.794   2.576   0.949
 3926SOL    HW215703   0.759   2.596   1.094
 3926SOL     MW15704   0.745   2.615   1.010
 3927SOL     OW15705   4.884   5.776   1.306
 3927SOL    HW115706   4.929   5.691   1.299
 3927SOL    HW215707   4.954   5.839   1.310
 3927SOL     MW15708   4.898   5.773   1.305
 3928SOL     OW15709   2.241   3.278   0.874
 3928SOL    HW115710   2.265   3.370   0.887
 3928SOL    HW215711   2.199   3.277   0.788
 3928SOL     MW15712   2.239   3.289   0.865
 3929SOL     OW15713   5.551   1.185   1.667
 3929SOL    HW115714   5.510   1.261   1.710
 3929SOL    HW215715   5.539   1.114   1.727
 3929SOL     MW15716   5.545   1.186   1.679
 3930SOL     OW15717   1.496   2.719   0.043
 3930SOL    HW115718   1.533   2.803   0.070
 3930SOL    HW215719   1.402   2.735   0.040
 3930SOL     MW15720   1.489   2.731   0.046
 3931SOL     OW15721   3.419   5.797   2.855
 3931SOL    HW115722   3.335   5.779   2.898
 3931SOL    HW215723   3.479   5.812   2.927
 3931SOL     MW15724   3.416   5.796   2.869
 3932SOL     OW15725   2.289   0.034   0.360
 3932SOL    HW115726   2.320  -0.016   0.436
 3932SOL    HW215727   2.256   0.115   0.398
 3932SOL     MW15728   2.289   0.038   0.374
 3933SOL     OW15729   0.082   1.512   5.779
 3933SOL    HW115730   0.165   1.552   5.810
 3933SOL    HW215731   0.016   1.576   5.803
 3933SOL     MW15732   0.085   1.525   5.786
 3934SOL     OW15733   4.739   5.962   2.374
 3934SOL    HW115734   4.665   5.961   2.437
 3934SOL    HW215735   4.712   6.025   2.308
 3934SOL     MW15736   4.726   5.970   2.374
 3935SOL     OW15737   3.804   4.960   1.239
 3935SOL    HW115738   3.803   4.873   1.199
 3935SOL    HW215739   3.807   4.943   1.332
 3935SOL     MW15740   3.804   4.947   1.245
 3936SOL     OW15741   3.550   4.623   3.548
 3936SOL    HW115742   3.639   4.600   3.521
 3936SOL    HW215743   3.556   4.633   3.642
 3936SOL     MW15744   3.561   4.621   3.556
 3937SOL     OW15745   5.005   0.303   3.895
 3937SOL    HW115746   4.910   0.315   3.903
 3937SOL    HW215747   5.040   0.389   3.912
 3937SOL     MW15748   4.997   0.315   3.898
 3938SOL     OW15749   5.310   1.659   3.898
 3938SOL    HW115750   5.388   1.686   3.848
 3938SOL    HW215751   5.337   1.664   3.989
 3938SOL     MW15752   5.323   1.663   3.903
 3939SOL     OW15753   2.023   4.002   1.202
 3939SOL    HW115754   2.104   3.977   1.246
 3939SOL    HW215755   2.039   3.983   1.110
 3939SOL     MW15756   2.035   3.997   1.196
 3940SOL     OW15757   0.440   1.622   1.209
 3940SOL    HW115758   0.417   1.540   1.254
 3940SOL    HW215759   0.357   1.667   1.199
 3940SOL     MW15760   0.427   1.618   1.214
 3941SOL     OW15761   5.510   2.867   1.149
 3941SOL    HW115762   5.593   2.880   1.100
 3941SOL    HW215763   5.524   2.785   1.196
 3941SOL     MW15764   5.522   2.859   1.148
 3942SOL     OW15765   4.451   5.197   1.334
 3942SOL    HW115766   4.421   5.109   1.312
 3942SOL    HW215767   4.371   5.244   1.356
 3942SOL     MW15768   4.438   5.192   1.334
 3943SOL     OW15769   4.690   2.655   5.656
 3943SOL    HW115770   4.594   2.656   5.664
 3943SOL    HW215771   4.720   2.689   5.739
 3943SOL     MW15772   4.682   2.659   5.667
 3944SOL     OW15773   2.248   5.731   3.026
 3944SOL    HW115774   2.183   5.676   3.070
 3944SOL    HW215775   2.233   5.716   2.934
 3944SOL     MW15776   2.238   5.722   3.020
 3945SOL     OW15777   6.008   5.068   1.449
 3945SOL    HW115778   5.928   5.033   1.490
 3945SOL    HW215779   5.986   5.077   1.358
 3945SOL     MW15780   5.996   5.065   1.443
 3946SOL     OW15781   5.875   3.129   5.991
 3946SOL    HW115782   5.788   3.089   6.001
 3946SOL    HW215783   5.899   3.109   5.901
 3946SOL     MW15784   5.867   3.122   5.981
 3947SOL     OW15785   4.816   5.523   4.124
 3947SOL    HW115786   4.898   5.490   4.160
 3947SOL    HW215787   4.827   5.515   4.030
 3947SOL     MW15788   4.827   5.518   4.117
 3948SOL     OW15789   3.104   3.141   3.402
 3948SOL    HW115790   3.077   3.077   3.335
 3948SOL    HW215791   3.170   3.194   3.360
 3948SOL     MW15792   3.108   3.140   3.389
 3949SOL     OW15793   4.489   1.518   5.262
 3949SOL    HW115794   4.577   1.534   5.296
 3949SOL    HW215795   4.501   1.513   5.168
 3949SOL     MW15796   4.501   1.519   5.255
 3950SOL     OW15797   1.217   5.493   0.944
 3950SOL    HW115798   1.145   5.448   0.989
 3950SOL    HW215799   1.198   5.585   0.957
 3950SOL     MW15800   1.206   5.499   0.951
 3951SOL     OW15801   1.149   4.979   5.549
 3951SOL    HW115802   1.080   5.021   5.601
 3951SOL    HW215803   1.230   5.010   5.588
 3951SOL     MW15804   1.150   4.988   5.560
 3952SOL     OW15805   5.214   4.971   2.999
 3952SOL    HW115806   5.248   5.059   3.020
 3952SOL    HW215807   5.226   4.963   2.906
 3952SOL     MW15808   5.219   4.981   2.991
 3953SOL     OW15809   0.409   3.557   2.343
 3953SOL    HW115810   0.454   3.639   2.321
 3953SOL    HW215811   0.478   3.497   2.365
 3953SOL     MW15812   0.423   3.560   2.343
 3954SOL     OW15813   1.797   2.878   1.174
 3954SOL    HW115814   1.836   2.962   1.199
 3954SOL    HW215815   1.852   2.813   1.218
 3954SOL     MW15816   1.808   2.880   1.182
 3955SOL     OW15817   4.889   1.245   4.382
 3955SOL    HW115818   4.869   1.151   4.394
 3955SOL    HW215819   4.856   1.265   4.296
 3955SOL     MW15820   4.883   1.236   4.374
 3956SOL     OW15821   0.815   1.367   3.108
 3956SOL    HW115822   0.722   1.382   3.129
 3956SOL    HW215823   0.850   1.325   3.186
 3956SOL     MW15824   0.807   1.364   3.120
 3957SOL     OW15825   2.765   6.008   4.772
 3957SOL    HW115826   2.686   6.053   4.741
 3957SOL    HW215827   2.757   6.008   4.866
 3957SOL     MW15828   2.755   6.013   4.779
 3958SOL     OW15829   3.229   6.066   0.424
 3958SOL    HW115830   3.197   6.134   0.363
 3958SOL    HW215831   3.312   6.100   0.454
 3958SOL     MW15832   3.235   6.078   0.420
 3959SOL     OW15833   0.045   3.467   4.227
 3959SOL    HW115834  -0.032   3.415   4.251
 3959SOL    HW215835   0.107   3.453   4.298
 3959SOL     MW15836   0.043   3.459   4.238
 3960SOL     OW15837   5.509   1.634   1.335
 3960SOL    HW115838   5.580   1.571   1.344
 3960SOL    HW215839   5.504   1.650   1.241
 3960SOL     MW15840   5.517   1.628   1.325
 3961SOL     OW15841   4.727   5.190   2.173
 3961SOL    HW115842   4.678   5.272   2.183
 3961SOL    HW215843   4.700   5.137   2.247
 3961SOL     MW15844   4.718   5.194   2.183
 3962SOL     OW15845   2.612   4.112   0.764
 3962SOL    HW115846   2.634   4.180   0.828
 3962SOL    HW215847   2.569   4.044   0.815
 3962SOL     MW15848   2.610   4.112   0.778
 3963SOL     OW15849   6.026   0.125   0.056
 3963SOL    HW115850   5.973   0.203   0.072
 3963SOL    HW215851   5.966   0.063   0.018
 3963SOL     MW15852   6.013   0.127   0.054
 3964SOL     OW15853   5.741   4.892   5.159
 3964SOL    HW115854   5.834   4.919   5.160
 3964SOL    HW215855   5.701   4.950   5.096
 3964SOL     MW15856   5.748   4.902   5.152
 3965SOL     OW15857   4.173   5.800   1.048
 3965SOL    HW115858   4.206   5.727   1.102
 3965SOL    HW215859   4.172   5.765   0.960
 3965SOL     MW15860   4.177   5.787   1.044
 3966SOL     OW15861   3.066   3.533   2.217
 3966SOL    HW115862   2.973   3.523   2.195
 3966SOL    HW215863   3.107   3.561   2.136
 3966SOL     MW15864   3.060   3.535   2.204
 3967SOL     OW15865   4.319   2.616   4.636
 3967SOL    HW115866   4.333   2.603   4.542
 3967SOL    HW215867   4.370   2.547   4.677
 3967SOL     MW15868   4.327   2.606   4.629
 3968SOL     OW15869   2.211   1.645   1.012
 3968SOL    HW115870   2.123   1.621   0.983
 3968SOL    HW215871   2.216   1.613   1.101
 3968SOL     MW15872   2.201   1.638   1.019
 3969SOL     OW15873   5.492   3.401   4.350
 3969SOL    HW115874   5.431   3.451   4.294
 3969SOL    HW215875   5.437   3.371   4.422
 3969SOL     MW15876   5.478   3.403   4.352
 3970SOL     OW15877   0.734   0.507   0.482
 3970SOL    HW115878   0.767   0.549   0.402
 3970SOL    HW215879   0.798   0.528   0.548
 3970SOL     MW15880   0.745   0.514   0.480
 3971SOL     OW15881   1.098   5.755   3.940
 3971SOL    HW115882   1.057   5.834   3.977
 3971SOL    HW215883   1.116   5.779   3.849
 3971SOL     MW15884   1.095   5.768   3.934
 3972SOL     OW15885   4.472   3.332   4.435
 3972SOL    HW115886   4.408   3.372   4.375
 3972SOL    HW215887   4.496   3.251   4.393
 3972SOL     MW15888   4.467   3.328   4.423
 3973SOL     OW15889   4.399   2.553   2.960
 3973SOL    HW115890   4.463   2.495   2.917
 3973SOL    HW215891   4.413   2.538   3.053
 3973SOL     MW15892   4.408   2.544   2.966
 3974SOL     OW15893   6.001   3.982   0.128
 3974SOL    HW115894   6.045   3.903   0.161
 3974SOL    HW215895   6.017   3.980   0.034
 3974SOL     MW15896   6.008   3.972   0.121
 3975SOL     OW15897   3.376   4.552   2.844
 3975SOL    HW115898   3.424   4.506   2.775
 3975SOL    HW215899   3.440   4.611   2.882
 3975SOL     MW15900   3.389   4.554   2.840
 3976SOL     OW15901   3.109   1.035   2.316
 3976SOL    HW115902   3.157   1.116   2.299
 3976SOL    HW215903   3.061   1.019   2.236
 3976SOL     MW15904   3.109   1.043   2.304
 3977SOL     OW15905   1.153   4.273   3.733
 3977SOL    HW115906   1.085   4.271   3.665
 3977SOL    HW215907   1.188   4.361   3.728
 3977SOL     MW15908   1.149   4.283   3.724
 3978SOL     OW15909   0.113   4.598   4.074
 3978SOL    HW115910   0.082   4.680   4.114
 3978SOL    HW215911   0.111   4.616   3.980
 3978SOL     MW15912   0.109   4.610   4.068
 3979SOL     OW15913   1.977   5.696   4.345
 3979SOL    HW115914   1.989   5.783   4.383
 3979SOL    HW215915   2.009   5.704   4.256
 3979SOL     MW15916   1.982   5.708   4.339
 3980SOL     OW15917   5.269   0.224   1.761
 3980SOL    HW115918   5.212   0.220   1.683
 3980SOL    HW215919   5.229   0.162   1.821
 3980SOL     MW15920   5.257   0.216   1.759
 3981SOL     OW15921   2.546   2.847   4.100
 3981SOL    HW115922   2.557   2.761   4.140
 3981SOL    HW215923   2.543   2.829   4.007
 3981SOL     MW15924   2.547   2.835   4.094
 3982SOL     OW15925   1.969   1.373   2.237
 3982SOL    HW115926   1.984   1.466   2.218
 3982SOL    HW215927   1.936   1.338   2.155
 3982SOL     MW15928   1.967   1.380   2.225
 3983SOL     OW15929  -0.005   5.061   5.666
 3983SOL    HW115930   0.081   5.023   5.645
 3983SOL    HW215931   0.008   5.101   5.751
 3983SOL     MW15932   0.007   5.061   5.674
 3984SOL     OW15933   0.011   2.508   4.974
 3984SOL    HW115934   0.105   2.498   4.989
 3984SOL    HW215935   0.004   2.532   4.883
 3984SOL     MW15936   0.022   2.509   4.965
 3985SOL     OW15937   5.363   5.078   2.909
 3985SOL    HW115938   5.366   5.057   2.815
 3985SOL    HW215939   5.419   5.013   2.950
 3985SOL     MW15940   5.370   5.067   2.903
 3986SOL     OW15941   1.438   0.117   3.400
 3986SOL    HW115942   1.357   0.160   3.430
 3986SOL    HW215943   1.444   0.141   3.309
 3986SOL     MW15944   1.429   0.125   3.393
 3987SOL     OW15945   3.398   4.898   4.397
 3987SOL    HW115946   3.325   4.926   4.452
 3987SOL    HW215947   3.470   4.955   4.422
 3987SOL     MW15948   3.398   4.908   4.407
 3988SOL     OW15949   6.077   3.532   2.461
 3988SOL    HW115950   6.010   3.568   2.402
 3988SOL    HW215951   6.044   3.551   2.548
 3988SOL     MW15952   6.065   3.539   2.464
 3989SOL     OW15953   5.598   5.609   1.434
 3989SOL    HW115954   5.663   5.540   1.448
 3989SOL    HW215955   5.648   5.682   1.401
 3989SOL     MW15956   5.612   5.609   1.432
 3990SOL     OW15957   0.395   2.526   1.863
 3990SOL    HW115958   0.450   2.498   1.937
 3990SOL    HW215959   0.390   2.449   1.807
 3990SOL     MW15960   0.401   2.513   1.866
 3991SOL     OW15961   5.251   2.995   5.770
 3991SOL    HW115962   5.259   3.041   5.686
 3991SOL    HW215963   5.341   2.982   5.799
 3991SOL     MW15964   5.263   2.999   5.763
 3992SOL     OW15965   3.681   5.297   2.370
 3992SOL    HW115966   3.707   5.224   2.314
 3992SOL    HW215967   3.589   5.310   2.350
 3992SOL     MW15968   3.673   5.290   2.361
 3993SOL     OW15969   4.150   3.937   1.355
 3993SOL    HW115970   4.101   3.927   1.272
 3993SOL    HW215971   4.240   3.948   1.328
 3993SOL     MW15972   4.154   3.937   1.342
 3994SOL     OW15973   1.190   0.353   2.137
 3994SOL    HW115974   1.229   0.427   2.088
 3994SOL    HW215975   1.204   0.375   2.228
 3994SOL     MW15976   1.196   0.365   2.141
 3995SOL     OW15977   3.486   5.978   2.812
 3995SOL    HW115978   3.465   6.072   2.821
 3995SOL    HW215979   3.577   5.972   2.838
 3995SOL     MW15980   3.494   5.989   2.816
 3996SOL     OW15981   1.163   5.374   2.773
 3996SOL    HW115982   1.121   5.447   2.820
 3996SOL    HW215983   1.109   5.362   2.695
 3996SOL     MW15984   1.151   5.382   2.770
 3997SOL     OW15985   4.537   1.313   0.384
 3997SOL    HW115986   4.488   1.262   0.449
 3997SOL    HW215987   4.472   1.335   0.319
 3997SOL     MW15988   4.523   1.310   0.384
 3998SOL     OW15989   2.031   1.478   3.231
 3998SOL    HW115990   1.964   1.417   3.262
 3998SOL    HW215991   2.074   1.509   3.310
 3998SOL     MW15992   2.028   1.474   3.244
 3999SOL     OW15993   1.584   0.924   1.476
 3999SOL    HW115994   1.555   1.011   1.504
 3999SOL    HW215995   1.663   0.941   1.427
 3999SOL     MW15996   1.590   0.937   1.474
 4000SOL     OW15997   3.783   5.852   2.033
 4000SOL    HW115998   3.803   5.812   1.948
 4000SOL    HW215999   3.783   5.945   2.015
 4000SOL     MW16000   3.786   5.858   2.020
 4001SOL     OW16001   0.327   4.181   5.956
 4001SOL    HW116002   0.247   4.128   5.946
 4001SOL    HW216003   0.294   4.267   5.977
 4001SOL     MW16004   0.313   4.185   5.957
 4002SOL     OW16005   2.017   6.034   5.466
 4002SOL    HW116006   2.036   6.007   5.375
 4002SOL    HW216007   1.955   6.105   5.457
 4002SOL     MW16008   2.012   6.039   5.454
 4003SOL     OW16009   5.131   3.258   3.550
 4003SOL    HW116010   5.182   3.178   3.570
 4003SOL    HW216011   5.155   3.278   3.460
 4003SOL     MW16012   5.140   3.250   3.542
 4004SOL     OW16013   2.792   3.576   1.098
 4004SOL    HW116014   2.865   3.514   1.104
 4004SOL    HW216015   2.825   3.656   1.137
 4004SOL     MW16016   2.805   3.578   1.104
 4005SOL     OW16017   2.407   0.878   5.824
 4005SOL    HW116018   2.382   0.968   5.801
 4005SOL    HW216019   2.350   0.857   5.898
 4005SOL     MW16020   2.397   0.887   5.830
 4006SOL     OW16021   5.942   1.280   4.220
 4006SOL    HW116022   5.947   1.364   4.267
 4006SOL    HW216023   6.029   1.244   4.229
 4006SOL     MW16024   5.953   1.286   4.227
 4007SOL     OW16025   2.454   4.759   2.203
 4007SOL    HW116026   2.430   4.828   2.141
 4007SOL    HW216027   2.533   4.791   2.245
 4007SOL     MW16028   2.460   4.771   2.200
 4008SOL     OW16029   2.632   5.466   1.232
 4008SOL    HW116030   2.625   5.371   1.242
 4008SOL    HW216031   2.609   5.482   1.141
 4008SOL     MW16032   2.628   5.457   1.222
 4009SOL     OW16033   3.343   1.389   5.754
 4009SOL    HW116034   3.399   1.331   5.702
 4009SOL    HW216035   3.331   1.465   5.699
 4009SOL     MW16036   3.348   1.391   5.741
 4010SOL     OW16037   0.983   4.340   2.635
 4010SOL    HW116038   1.052   4.399   2.604
 4010SOL    HW216039   1.017   4.253   2.618
 4010SOL     MW16040   0.995   4.337   2.629
 4011SOL     OW16041   2.050   3.750   5.969
 4011SOL    HW116042   2.025   3.838   5.939
 4011SOL    HW216043   1.968   3.709   5.993
 4011SOL     MW16044   2.037   3.756   5.968
 4012SOL     OW16045   3.908   0.720   1.549
 4012SOL    HW116046   3.940   0.701   1.460
 4012SOL    HW216047   3.979   0.692   1.606
 4012SOL     MW16048   3.920   0.714   1.545
 4013SOL     OW16049   2.148   2.404   2.495
 4013SOL    HW116050   2.201   2.473   2.454
 4013SOL    HW216051   2.156   2.420   2.588
 4013SOL     MW16052   2.155   2.414   2.501
 4014SOL     OW16053   5.175   0.283   4.054
 4014SOL    HW116054   5.184   0.193   4.085
 4014SOL    HW216055   5.188   0.277   3.960
 4014SOL     MW16056   5.178   0.271   4.046
 4015SOL     OW16057   4.535   4.621   1.746
 4015SOL    HW116058   4.574   4.535   1.767
 4015SOL    HW216059   4.538   4.625   1.651
 4015SOL     MW16060   4.540   4.611   1.737
 4016SOL     OW16061   2.836   2.071   5.642
 4016SOL    HW116062   2.918   2.079   5.692
 4016SOL    HW216063   2.864   2.064   5.552
 4016SOL     MW16064   2.849   2.071   5.638
 4017SOL     OW16065   3.703   3.473   0.090
 4017SOL    HW116066   3.697   3.402   0.154
 4017SOL    HW216067   3.697   3.429   0.006
 4017SOL     MW16068   3.701   3.459   0.088
 4018SOL     OW16069   2.529   2.719   2.681
 4018SOL    HW116070   2.548   2.627   2.702
 4018SOL    HW216071   2.601   2.767   2.719
 4018SOL     MW16072   2.540   2.713   2.688
 4019SOL     OW16073   4.138   0.958   5.523
 4019SOL    HW116074   4.043   0.940   5.528
 4019SOL    HW216075   4.160   0.941   5.432
 4019SOL     MW16076   4.129   0.954   5.512
 4020SOL     OW16077   1.593   3.576   1.415
 4020SOL    HW116078   1.638   3.659   1.433
 4020SOL    HW216079   1.637   3.541   1.338
 4020SOL     MW16080   1.603   3.582   1.408
 4021SOL     OW16081   5.832   0.885   3.752
 4021SOL    HW116082   5.917   0.916   3.784
 4021SOL    HW216083   5.837   0.897   3.658
 4021SOL     MW16084   5.843   0.890   3.744
 4022SOL     OW16085   2.659   0.407   2.701
 4022SOL    HW116086   2.698   0.332   2.746
 4022SOL    HW216087   2.580   0.371   2.662
 4022SOL     MW16088   2.654   0.393   2.702
 4023SOL     OW16089   1.305   3.165   0.917
 4023SOL    HW116090   1.297   3.154   0.821
 4023SOL    HW216091   1.325   3.257   0.928
 4023SOL     MW16092   1.306   3.175   0.906
 4024SOL     OW16093   0.974   3.095   3.404
 4024SOL    HW116094   1.068   3.073   3.400
 4024SOL    HW216095   0.945   3.058   3.486
 4024SOL     MW16096   0.982   3.088   3.414
 4025SOL     OW16097   0.198   0.230   3.642
 4025SOL    HW116098   0.249   0.189   3.571
 4025SOL    HW216099   0.209   0.323   3.628
 4025SOL     MW16100   0.206   0.236   3.632
 4026SOL     OW16101   5.778   3.103   3.168
 4026SOL    HW116102   5.770   3.118   3.073
 4026SOL    HW216103   5.688   3.090   3.197
 4026SOL     MW16104   5.766   3.103   3.160
 4027SOL     OW16105   2.527   5.716   2.571
 4027SOL    HW116106   2.509   5.633   2.617
 4027SOL    HW216107   2.534   5.690   2.479
 4027SOL     MW16108   2.525   5.703   2.565
 4028SOL     OW16109   2.178   4.027   3.275
 4028SOL    HW116110   2.185   4.007   3.181
 4028SOL    HW216111   2.119   3.961   3.309
 4028SOL     MW16112   2.172   4.017   3.268
 4029SOL     OW16113   3.383   5.195   3.093
 4029SOL    HW116114   3.458   5.251   3.116
 4029SOL    HW216115   3.416   5.139   3.024
 4029SOL     MW16116   3.396   5.195   3.088
 4030SOL     OW16117   2.959   3.085   4.714
 4030SOL    HW116118   2.868   3.055   4.701
 4030SOL    HW216119   2.970   3.156   4.652
 4030SOL     MW16120   2.949   3.090   4.705
 4031SOL     OW16121   3.617   2.928   4.784
 4031SOL    HW116122   3.522   2.929   4.766
 4031SOL    HW216123   3.645   2.843   4.752
 4031SOL     MW16124   3.608   2.918   4.778
 4032SOL     OW16125   3.199   1.104   5.794
 4032SOL    HW116126   3.148   1.134   5.718
 4032SOL    HW216127   3.227   1.184   5.836
 4032SOL     MW16128   3.196   1.117   5.789
 4033SOL     OW16129   0.912   3.940   3.801
 4033SOL    HW116130   0.879   4.023   3.836
 4033SOL    HW216131   0.880   3.939   3.711
 4033SOL     MW16132   0.904   3.950   3.794
 4034SOL     OW16133   5.548   5.714   0.182
 4034SOL    HW116134   5.463   5.731   0.222
 4034SOL    HW216135   5.535   5.634   0.132
 4034SOL     MW16136   5.536   5.706   0.181
 4035SOL     OW16137   0.001   5.619   2.942
 4035SOL    HW116138  -0.038   5.606   2.855
 4035SOL    HW216139   0.063   5.690   2.930
 4035SOL     MW16140   0.004   5.626   2.930
 4036SOL     OW16141   2.930   3.833   5.121
 4036SOL    HW116142   2.948   3.904   5.183
 4036SOL    HW216143   2.877   3.873   5.054
 4036SOL     MW16144   2.926   3.846   5.121
 4037SOL     OW16145   4.460   3.748   2.362
 4037SOL    HW116146   4.388   3.692   2.392
 4037SOL    HW216147   4.509   3.769   2.440
 4037SOL     MW16148   4.457   3.744   2.375
 4038SOL     OW16149   0.447   2.584   4.386
 4038SOL    HW116150   0.494   2.508   4.421
 4038SOL    HW216151   0.403   2.551   4.309
 4038SOL     MW16152   0.448   2.571   4.381
 4039SOL     OW16153   4.432   3.318   0.117
 4039SOL    HW116154   4.435   3.231   0.158
 4039SOL    HW216155   4.364   3.310   0.051
 4039SOL     MW16156   4.424   3.306   0.114
 4040SOL     OW16157   0.599   5.140   0.048
 4040SOL    HW116158   0.540   5.103   0.115
 4040SOL    HW216159   0.659   5.069   0.028
 4040SOL     MW16160   0.599   5.127   0.054
 4041SOL     OW16161   4.727   0.544   4.923
 4041SOL    HW116162   4.638   0.564   4.954
 4041SOL    HW216163   4.735   0.594   4.842
 4041SOL     MW16164   4.717   0.552   4.917
 4042SOL     OW16165   4.026   3.155   5.171
 4042SOL    HW116166   4.087   3.110   5.111
 4042SOL    HW216167   4.055   3.246   5.168
 4042SOL     MW16168   4.037   3.160   5.163
 4043SOL     OW16169   1.964   5.753   3.678
 4043SOL    HW116170   2.031   5.684   3.683
 4043SOL    HW216171   2.012   5.830   3.650
 4043SOL     MW16172   1.978   5.754   3.675
 4044SOL     OW16173   2.578   2.678   2.265
 4044SOL    HW116174   2.560   2.586   2.287
 4044SOL    HW216175   2.659   2.675   2.216
 4044SOL     MW16176   2.585   2.666   2.262
 4045SOL     OW16177   0.278   3.885   3.633
 4045SOL    HW116178   0.252   3.978   3.628
 4045SOL    HW216179   0.244   3.847   3.553
 4045SOL     MW16180   0.271   3.892   3.623
 4046SOL     OW16181   0.810   2.308   2.498
 4046SOL    HW116182   0.870   2.235   2.509
 4046SOL    HW216183   0.724   2.268   2.493
 4046SOL     MW16184   0.807   2.295   2.498
 4047SOL     OW16185   5.241   4.357   4.925
 4047SOL    HW116186   5.283   4.296   4.986
 4047SOL    HW216187   5.210   4.303   4.854
 4047SOL     MW16188   5.242   4.343   4.924
 4048SOL     OW16189   2.783   0.449   1.383
 4048SOL    HW116190   2.822   0.530   1.347
 4048SOL    HW216191   2.800   0.454   1.476
 4048SOL     MW16192   2.790   0.459   1.390
 4049SOL     OW16193   0.855   5.856   2.402
 4049SOL    HW116194   0.827   5.781   2.350
 4049SOL    HW216195   0.839   5.830   2.492
 4049SOL     MW16196   0.850   5.844   2.407
 4050SOL     OW16197   2.754   2.548   0.153
 4050SOL    HW116198   2.838   2.552   0.107
 4050SOL    HW216199   2.778   2.546   0.245
 4050SOL     MW16200   2.767   2.548   0.159
 4051SOL     OW16201   2.294   2.790   3.356
 4051SOL    HW116202   2.346   2.732   3.413
 4051SOL    HW216203   2.224   2.821   3.412
 4051SOL     MW16204   2.292   2.787   3.370
 4052SOL     OW16205   5.199   1.718   1.979
 4052SOL    HW116206   5.104   1.712   1.963
 4052SOL    HW216207   5.213   1.807   2.008
 4052SOL     MW16208   5.189   1.728   1.981
 4053SOL     OW16209   1.872   1.109   1.905
 4053SOL    HW116210   1.951   1.126   1.957
 4053SOL    HW216211   1.898   1.128   1.816
 4053SOL     MW16212   1.884   1.114   1.901
 4054SOL     OW16213   5.887   5.231   3.074
 4054SOL    HW116214   5.892   5.324   3.053
 4054SOL    HW216215   5.861   5.190   2.992
 4054SOL     MW16216   5.884   5.237   3.062
 4055SOL     OW16217   3.348   5.887   3.978
 4055SOL    HW116218   3.279   5.873   3.913
 4055SOL    HW216219   3.429   5.876   3.929
 4055SOL     MW16220   3.349   5.884   3.965
 4056SOL     OW16221   4.257   1.827   1.550
 4056SOL    HW116222   4.246   1.803   1.458
 4056SOL    HW216223   4.342   1.791   1.574
 4056SOL     MW16224   4.266   1.819   1.542
 4057SOL     OW16225   4.912   1.482   2.872
 4057SOL    HW116226   4.987   1.523   2.917
 4057SOL    HW216227   4.935   1.485   2.780
 4057SOL     MW16228   4.924   1.487   2.867
 4058SOL     OW16229   5.523   6.038   5.679
 4058SOL    HW116230   5.471   6.101   5.730
 4058SOL    HW216231   5.460   5.993   5.625
 4058SOL     MW16232   5.509   6.040   5.679
 4059SOL     OW16233   2.337   4.631   5.250
 4059SOL    HW116234   2.348   4.573   5.175
 4059SOL    HW216235   2.261   4.684   5.228
 4059SOL     MW16236   2.329   4.630   5.238
 4060SOL     OW16237   1.052   5.482   1.245
 4060SOL    HW116238   1.083   5.396   1.215
 4060SOL    HW216239   1.111   5.505   1.315
 4060SOL     MW16240   1.063   5.474   1.249
 4061SOL     OW16241   5.745   3.845   4.523
 4061SOL    HW116242   5.678   3.825   4.589
 4061SOL    HW216243   5.696   3.864   4.444
 4061SOL     MW16244   5.731   3.845   4.522
 4062SOL     OW16245   4.432   4.989   2.382
 4062SOL    HW116246   4.486   5.056   2.424
 4062SOL    HW216247   4.408   5.026   2.299
 4062SOL     MW16248   4.435   5.001   2.377
 4063SOL     OW16249   3.944   4.961   1.082
 4063SOL    HW116250   3.960   5.056   1.094
 4063SOL    HW216251   4.016   4.931   1.028
 4063SOL     MW16252   3.954   4.969   1.077
 4064SOL     OW16253   3.164   3.237   0.453
 4064SOL    HW116254   3.200   3.310   0.401
 4064SOL    HW216255   3.160   3.271   0.542
 4064SOL     MW16256   3.168   3.250   0.457
 4065SOL     OW16257   1.997   3.716   0.475
 4065SOL    HW116258   2.060   3.786   0.454
 4065SOL    HW216259   1.937   3.756   0.536
 4065SOL     MW16260   1.998   3.730   0.479
 4066SOL     OW16261   3.442   2.410   0.176
 4066SOL    HW116262   3.380   2.383   0.107
 4066SOL    HW216263   3.507   2.460   0.129
 4066SOL     MW16264   3.442   2.413   0.162
 4067SOL     OW16265   4.956   1.290   0.257
 4067SOL    HW116266   4.864   1.273   0.278
 4067SOL    HW216267   4.994   1.316   0.341
 4067SOL     MW16268   4.949   1.291   0.270
 4068SOL     OW16269   0.417   3.958   3.762
 4068SOL    HW116270   0.465   3.991   3.838
 4068SOL    HW216271   0.345   4.019   3.751
 4068SOL     MW16272   0.415   3.969   3.770
 4069SOL     OW16273   5.581   0.039   1.939
 4069SOL    HW116274   5.501   0.045   1.992
 4069SOL    HW216275   5.558   0.082   1.857
 4069SOL     MW16276   5.568   0.045   1.935
 4070SOL     OW16277  -0.011   3.023   0.013
 4070SOL    HW116278   0.069   3.006   0.064
 4070SOL    HW216279   0.017   3.018  -0.077
 4070SOL     MW16280   0.002   3.020   0.009
 4071SOL     OW16281   4.309   5.746   5.277
 4071SOL    HW116282   4.322   5.836   5.308
 4071SOL    HW216283   4.265   5.756   5.193
 4071SOL     MW16284   4.305   5.758   5.271
 4072SOL     OW16285   2.422   1.643   5.567
 4072SOL    HW116286   2.498   1.678   5.613
 4072SOL    HW216287   2.352   1.647   5.632
 4072SOL     MW16288   2.423   1.648   5.580
 4073SOL     OW16289   3.793   2.119   4.403
 4073SOL    HW116290   3.822   2.195   4.455
 4073SOL    HW216291   3.766   2.055   4.467
 4073SOL     MW16292   3.794   2.121   4.417
 4074SOL     OW16293   5.550   3.450   1.924
 4074SOL    HW116294   5.629   3.488   1.885
 4074SOL    HW216295   5.562   3.462   2.017
 4074SOL     MW16296   5.561   3.456   1.930
 4075SOL     OW16297   2.199   4.354   0.483
 4075SOL    HW116298   2.108   4.361   0.514
 4075SOL    HW216299   2.190   4.327   0.393
 4075SOL     MW16300   2.187   4.352   0.476
 4076SOL     OW16301   3.555   4.423   3.165
 4076SOL    HW116302   3.502   4.383   3.234
 4076SOL    HW216303   3.504   4.497   3.136
 4076SOL     MW16304   3.543   4.427   3.170
 4077SOL     OW16305   3.005   5.334   3.199
 4077SOL    HW116306   3.021   5.427   3.219
 4077SOL    HW216307   3.078   5.288   3.239
 4077SOL     MW16308   3.015   5.340   3.206
 4078SOL     OW16309   0.255   5.692   4.319
 4078SOL    HW116310   0.346   5.709   4.348
 4078SOL    HW216311   0.264   5.621   4.257
 4078SOL     MW16312   0.267   5.686   4.316
 4079SOL     OW16313   5.897   1.168   1.338
 4079SOL    HW116314   5.990   1.177   1.316
 4079SOL    HW216315   5.871   1.254   1.368
 4079SOL     MW16316   5.905   1.179   1.339
 4080SOL     OW16317   3.889   1.668   2.349
 4080SOL    HW116318   3.839   1.701   2.274
 4080SOL    HW216319   3.978   1.661   2.316
 4080SOL     MW16320   3.893   1.672   2.336
 4081SOL     OW16321   4.020   1.695   2.665
 4081SOL    HW116322   3.952   1.629   2.646
 4081SOL    HW216323   4.067   1.705   2.583
 4081SOL     MW16324   4.017   1.688   2.653
 4082SOL     OW16325   1.361   5.457   3.322
 4082SOL    HW116326   1.315   5.412   3.251
 4082SOL    HW216327   1.390   5.387   3.379
 4082SOL     MW16328   1.359   5.443   3.320
 4083SOL     OW16329   4.576   1.487   2.334
 4083SOL    HW116330   4.663   1.528   2.337
 4083SOL    HW216331   4.557   1.480   2.241
 4083SOL     MW16332   4.584   1.491   2.323
 4084SOL     OW16333   1.075   1.738   4.198
 4084SOL    HW116334   1.058   1.830   4.219
 4084SOL    HW216335   1.140   1.711   4.261
 4084SOL     MW16336   1.080   1.746   4.208
 4085SOL     OW16337   2.820   4.314   3.761
 4085SOL    HW116338   2.879   4.242   3.786
 4085SOL    HW216339   2.744   4.270   3.725
 4085SOL     MW16340   2.818   4.300   3.760
 4086SOL     OW16341   3.392   5.126   3.677
 4086SOL    HW116342   3.377   5.032   3.688
 4086SOL    HW216343   3.306   5.164   3.687
 4086SOL     MW16344   3.380   5.119   3.680
 4087SOL     OW16345   4.192   1.707   3.106
 4087SOL    HW116346   4.245   1.722   3.184
 4087SOL    HW216347   4.161   1.793   3.081
 4087SOL     MW16348   4.195   1.719   3.112
 4088SOL     OW16349   1.156   0.541   3.354
 4088SOL    HW116350   1.209   0.608   3.398
 4088SOL    HW216351   1.126   0.583   3.275
 4088SOL     MW16352   1.159   0.554   3.350
 4089SOL     OW16353   1.874   1.775   0.161
 4089SOL    HW116354   1.837   1.697   0.118
 4089SOL    HW216355   1.819   1.846   0.131
 4089SOL     MW16356   1.863   1.774   0.152
 4090SOL     OW16357   1.293   4.173   2.852
 4090SOL    HW116358   1.273   4.267   2.854
 4090SOL    HW216359   1.307   4.150   2.942
 4090SOL     MW16360   1.292   4.182   2.863
 4091SOL     OW16361   5.025   3.698   5.305
 4091SOL    HW116362   5.081   3.751   5.362
 4091SOL    HW216363   4.942   3.744   5.305
 4091SOL     MW16364   5.022   3.710   5.312
 4092SOL     OW16365   2.801   4.487   5.556
 4092SOL    HW116366   2.817   4.509   5.464
 4092SOL    HW216367   2.709   4.506   5.569
 4092SOL     MW16368   2.792   4.492   5.546
 4093SOL     OW16369   0.838   5.868   5.070
 4093SOL    HW116370   0.881   5.825   4.995
 4093SOL    HW216371   0.830   5.799   5.135
 4093SOL     MW16372   0.843   5.855   5.069
 4094SOL     OW16373   2.761   3.166   1.390
 4094SOL    HW116374   2.807   3.091   1.431
 4094SOL    HW216375   2.767   3.149   1.297
 4094SOL     MW16376   2.767   3.154   1.384
 4095SOL     OW16377   5.379   2.824   5.391
 4095SOL    HW116378   5.305   2.793   5.338
 4095SOL    HW216379   5.454   2.815   5.334
 4095SOL     MW16380   5.378   2.819   5.378
 4096SOL     OW16381   5.436   0.044   1.131
 4096SOL    HW116382   5.511  -0.017   1.127
 4096SOL    HW216383   5.369   0.001   1.080
 4096SOL     MW16384   5.437   0.032   1.124
 4097SOL     OW16385   4.762   2.982   4.542
 4097SOL    HW116386   4.755   2.980   4.446
 4097SOL    HW216387   4.738   2.895   4.569
 4097SOL     MW16388   4.758   2.971   4.533
 4098SOL     OW16389   2.671   1.362   1.199
 4098SOL    HW116390   2.589   1.373   1.150
 4098SOL    HW216391   2.646   1.319   1.279
 4098SOL     MW16392   2.658   1.358   1.202
 4099SOL     OW16393   0.042   1.730   0.996
 4099SOL    HW116394  -0.014   1.779   0.935
 4099SOL    HW216395   0.096   1.796   1.037
 4099SOL     MW16396   0.042   1.743   0.994
 4100SOL     OW16397   4.306   1.046   4.875
 4100SOL    HW116398   4.369   1.015   4.809
 4100SOL    HW216399   4.339   1.130   4.902
 4100SOL     MW16400   4.318   1.052   4.870
 4101SOL     OW16401   0.056   4.474   0.141
 4101SOL    HW116402   0.133   4.531   0.154
 4101SOL    HW216403   0.056   4.416   0.216
 4101SOL     MW16404   0.065   4.474   0.151
 4102SOL     OW16405   2.845   5.386   4.322
 4102SOL    HW116406   2.916   5.430   4.274
 4102SOL    HW216407   2.889   5.337   4.390
 4102SOL     MW16408   2.859   5.385   4.324
 4103SOL     OW16409   2.870   4.910   2.840
 4103SOL    HW116410   2.937   4.976   2.858
 4103SOL    HW216411   2.817   4.908   2.919
 4103SOL     MW16412   2.872   4.918   2.851
 4104SOL     OW16413   0.662   4.887   3.059
 4104SOL    HW116414   0.647   4.834   2.980
 4104SOL    HW216415   0.755   4.878   3.077
 4104SOL     MW16416   0.671   4.880   3.052
 4105SOL     OW16417   1.254   4.551   1.946
 4105SOL    HW116418   1.284   4.561   1.855
 4105SOL    HW216419   1.161   4.533   1.938
 4105SOL     MW16420   1.247   4.550   1.934
 4106SOL     OW16421   3.805   4.709   3.105
 4106SOL    HW116422   3.757   4.625   3.108
 4106SOL    HW216423   3.886   4.690   3.151
 4106SOL     MW16424   3.808   4.696   3.111
 4107SOL     OW16425   2.912   1.925   2.193
 4107SOL    HW116426   2.904   2.018   2.169
 4107SOL    HW216427   2.893   1.923   2.285
 4107SOL     MW16428   2.909   1.936   2.201
 4108SOL     OW16429   0.349   1.825   3.506
 4108SOL    HW116430   0.429   1.874   3.527
 4108SOL    HW216431   0.349   1.819   3.412
 4108SOL     MW16432   0.359   1.830   3.498
 4109SOL     OW16433   5.792   4.395   2.332
 4109SOL    HW116434   5.789   4.489   2.311
 4109SOL    HW216435   5.724   4.385   2.398
 4109SOL     MW16436   5.784   4.406   2.337
 4110SOL     OW16437   2.842   4.791   0.968
 4110SOL    HW116438   2.879   4.755   0.887
 4110SOL    HW216439   2.899   4.757   1.037
 4110SOL     MW16440   2.853   4.783   0.967
 4111SOL     OW16441   3.702   2.034   6.084
 4111SOL    HW116442   3.667   2.089   6.013
 4111SOL    HW216443   3.659   2.068   6.162
 4111SOL     MW16444   3.693   2.045   6.085
 4112SOL     OW16445   0.821   3.263   2.745
 4112SOL    HW116446   0.750   3.324   2.724
 4112SOL    HW216447   0.780   3.177   2.744
 4112SOL     MW16448   0.808   3.260   2.742
 4113SOL     OW16449   5.747   4.599   5.688
 4113SOL    HW116450   5.667   4.576   5.736
 4113SOL    HW216451   5.726   4.580   5.597
 4113SOL     MW16452   5.735   4.594   5.683
 4114SOL     OW16453   5.493   2.063   2.623
 4114SOL    HW116454   5.461   1.978   2.589
 4114SOL    HW216455   5.506   2.115   2.544
 4114SOL     MW16456   5.490   2.059   2.609
 4115SOL     OW16457   1.109   0.194   0.178
 4115SOL    HW116458   1.067   0.241   0.250
 4115SOL    HW216459   1.040   0.139   0.143
 4115SOL     MW16460   1.096   0.193   0.183
 4116SOL     OW16461   5.176   0.924   5.985
 4116SOL    HW116462   5.211   1.002   6.029
 4116SOL    HW216463   5.191   0.941   5.893
 4116SOL     MW16464   5.182   0.936   5.979
 4117SOL     OW16465   3.942   4.201   3.719
 4117SOL    HW116466   3.929   4.120   3.668
 4117SOL    HW216467   3.908   4.180   3.805
 4117SOL     MW16468   3.937   4.189   3.723
 4118SOL     OW16469   4.365   2.701   5.485
 4118SOL    HW116470   4.421   2.779   5.479
 4118SOL    HW216471   4.345   2.680   5.395
 4118SOL     MW16472   4.370   2.708   5.474
 4119SOL     OW16473   1.211   4.024   1.783
 4119SOL    HW116474   1.138   3.980   1.828
 4119SOL    HW216475   1.205   3.994   1.693
 4119SOL     MW16476   1.201   4.015   1.778
 4120SOL     OW16477   4.475  -0.017   0.813
 4120SOL    HW116478   4.388   0.019   0.833
 4120SOL    HW216479   4.517   0.050   0.762
 4120SOL     MW16480   4.469  -0.005   0.809
 4121SOL     OW16481   4.936   3.180   2.573
 4121SOL    HW116482   4.875   3.110   2.546
 4121SOL    HW216483   4.879   3.252   2.599
 4121SOL     MW16484   4.921   3.180   2.573
 4122SOL     OW16485   4.133   2.560   4.686
 4122SOL    HW116486   4.090   2.500   4.624
 4122SOL    HW216487   4.066   2.624   4.706
 4122SOL     MW16488   4.120   2.560   4.680
 4123SOL     OW16489   0.525   0.515   2.544
 4123SOL    HW116490   0.554   0.441   2.489
 4123SOL    HW216491   0.541   0.592   2.490
 4123SOL     MW16492   0.530   0.515   2.531
 4124SOL     OW16493   1.829   2.035   1.423
 4124SOL    HW116494   1.903   2.053   1.483
 4124SOL    HW216495   1.834   1.942   1.408
 4124SOL     MW16496   1.839   2.026   1.429
 4125SOL     OW16497   3.934   5.533   2.522
 4125SOL    HW116498   3.898   5.444   2.521
 4125SOL    HW216499   3.917   5.564   2.610
 4125SOL     MW16500   3.927   5.526   2.532
 4126SOL     OW16501   5.169   5.403   0.664
 4126SOL    HW116502   5.223   5.343   0.716
 4126SOL    HW216503   5.128   5.347   0.600
 4126SOL     MW16504   5.171   5.389   0.663
 4127SOL     OW16505   5.843   3.206   5.276
 4127SOL    HW116506   5.804   3.255   5.203
 4127SOL    HW216507   5.936   3.217   5.264
 4127SOL     MW16508   5.849   3.213   5.266
 4128SOL     OW16509   5.648   2.232   4.461
 4128SOL    HW116510   5.712   2.162   4.446
 4128SOL    HW216511   5.577   2.213   4.401
 4128SOL     MW16512   5.647   2.221   4.452
 4129SOL     OW16513   1.186   0.443   3.777
 4129SOL    HW116514   1.136   0.492   3.711
 4129SOL    HW216515   1.238   0.382   3.726
 4129SOL     MW16516   1.186   0.442   3.762
 4130SOL     OW16517   5.727   3.862   3.333
 4130SOL    HW116518   5.751   3.777   3.294
 4130SOL    HW216519   5.632   3.863   3.331
 4130SOL     MW16520   5.719   3.852   3.328
 4131SOL     OW16521   4.021   0.841   1.225
 4131SOL    HW116522   4.049   0.912   1.166
 4131SOL    HW216523   4.071   0.855   1.304
 4131SOL     MW16524   4.030   0.851   1.227
 4132SOL     OW16525   2.392   1.586   0.185
 4132SOL    HW116526   2.297   1.597   0.196
 4132SOL    HW216527   2.423   1.563   0.272
 4132SOL     MW16528   2.384   1.584   0.197
 4133SOL     OW16529   5.207   0.425   5.900
 4133SOL    HW116530   5.221   0.392   5.810
 4133SOL    HW216531   5.177   0.514   5.887
 4133SOL     MW16532   5.205   0.432   5.887
 4134SOL     OW16533   3.058   4.742   2.738
 4134SOL    HW116534   2.971   4.768   2.706
 4134SOL    HW216535   3.084   4.672   2.679
 4134SOL     MW16536   3.050   4.737   2.727
 4135SOL     OW16537   3.226   0.770   3.570
 4135SOL    HW116538   3.209   0.855   3.529
 4135SOL    HW216539   3.218   0.786   3.663
 4135SOL     MW16540   3.223   0.782   3.576
 4136SOL     OW16541   0.681   2.577   5.696
 4136SOL    HW116542   0.715   2.505   5.749
 4136SOL    HW216543   0.630   2.630   5.756
 4136SOL     MW16544   0.679   2.575   5.709
 4137SOL     OW16545   3.045   4.381   1.205
 4137SOL    HW116546   2.963   4.363   1.158
 4137SOL    HW216547   3.027   4.359   1.295
 4137SOL     MW16548   3.033   4.376   1.210
 4138SOL     OW16549   1.905   1.188   0.539
 4138SOL    HW116550   1.887   1.230   0.624
 4138SOL    HW216551   1.826   1.202   0.489
 4138SOL     MW16552   1.893   1.195   0.544
 4139SOL     OW16553   3.417   0.192   2.015
 4139SOL    HW116554   3.456   0.247   1.946
 4139SOL    HW216555   3.482   0.193   2.085
 4139SOL     MW16556   3.430   0.199   2.015
 4140SOL     OW16557   0.250   3.116   4.691
 4140SOL    HW116558   0.317   3.121   4.760
 4140SOL    HW216559   0.186   3.055   4.725
 4140SOL     MW16560   0.250   3.109   4.703
 4141SOL     OW16561   5.456   4.969   2.576
 4141SOL    HW116562   5.531   4.923   2.615
 4141SOL    HW216563   5.472   4.966   2.483
 4141SOL     MW16564   5.467   4.963   2.570
 4142SOL     OW16565   0.205   4.641   2.158
 4142SOL    HW116566   0.161   4.623   2.074
 4142SOL    HW216567   0.135   4.671   2.214
 4142SOL     MW16568   0.191   4.643   2.154
 4143SOL     OW16569   4.593   1.044   0.839
 4143SOL    HW116570   4.510   1.076   0.874
 4143SOL    HW216571   4.626   0.986   0.907
 4143SOL     MW16572   4.587   1.041   0.851
 4144SOL     OW16573   4.135   2.205   2.741
 4144SOL    HW116574   4.139   2.239   2.651
 4144SOL    HW216575   4.152   2.112   2.732
 4144SOL     MW16576   4.138   2.198   2.729
 4145SOL     OW16577   3.109   4.497   0.210
 4145SOL    HW116578   3.057   4.522   0.286
 4145SOL    HW216579   3.159   4.421   0.239
 4145SOL     MW16580   3.109   4.491   0.222
 4146SOL     OW16581   1.396   3.452   0.029
 4146SOL    HW116582   1.320   3.507   0.049
 4146SOL    HW216583   1.360   3.382  -0.024
 4146SOL     MW16584   1.382   3.450   0.025
 4147SOL     OW16585   2.102   5.442   4.894
 4147SOL    HW116586   2.145   5.370   4.846
 4147SOL    HW216587   2.009   5.429   4.878
 4147SOL     MW16588   2.096   5.432   4.886
 4148SOL     OW16589   2.841   5.614   0.421
 4148SOL    HW116590   2.824   5.625   0.327
 4148SOL    HW216591   2.931   5.645   0.432
 4148SOL     MW16592   2.850   5.619   0.411
 4149SOL     OW16593   0.258   1.642   0.491
 4149SOL    HW116594   0.335   1.606   0.447
 4149SOL    HW216595   0.284   1.648   0.583
 4149SOL     MW16596   0.270   1.638   0.497
 4150SOL     OW16597   2.539   2.739   4.347
 4150SOL    HW116598   2.604   2.764   4.414
 4150SOL    HW216599   2.584   2.674   4.295
 4150SOL     MW16600   2.552   2.734   4.349
 4151SOL     OW16601   3.073   0.145   3.684
 4151SOL    HW116602   3.141   0.078   3.694
 4151SOL    HW216603   3.087   0.181   3.597
 4151SOL     MW16604   3.083   0.141   3.675
 4152SOL     OW16605   3.795   4.329   2.745
 4152SOL    HW116606   3.815   4.320   2.652
 4152SOL    HW216607   3.768   4.419   2.755
 4152SOL     MW16608   3.794   4.338   2.735
 4153SOL     OW16609   3.932   5.922   4.779
 4153SOL    HW116610   3.932   6.018   4.784
 4153SOL    HW216611   3.887   5.895   4.858
 4153SOL     MW16612   3.927   5.930   4.789
 4154SOL     OW16613   2.123   4.728   0.386
 4154SOL    HW116614   2.112   4.645   0.434
 4154SOL    HW216615   2.165   4.703   0.305
 4154SOL     MW16616   2.127   4.715   0.382
 4155SOL     OW16617   5.952   4.860   3.657
 4155SOL    HW116618   5.901   4.939   3.679
 4155SOL    HW216619   5.969   4.869   3.564
 4155SOL     MW16620   5.948   4.871   3.649
 4156SOL     OW16621   4.803   4.667   1.772
 4156SOL    HW116622   4.867   4.619   1.825
 4156SOL    HW216623   4.833   4.756   1.774
 4156SOL     MW16624   4.814   4.671   1.779
 4157SOL     OW16625   2.144   3.264   2.131
 4157SOL    HW116626   2.091   3.211   2.191
 4157SOL    HW216627   2.201   3.200   2.088
 4157SOL     MW16628   2.144   3.250   2.133
 4158SOL     OW16629   5.835   3.615   5.821
 4158SOL    HW116630   5.886   3.534   5.835
 4158SOL    HW216631   5.868   3.649   5.738
 4158SOL     MW16632   5.845   3.609   5.813
 4159SOL     OW16633   2.285   5.242   2.129
 4159SOL    HW116634   2.197   5.209   2.151
 4159SOL    HW216635   2.293   5.224   2.036
 4159SOL     MW16636   2.275   5.236   2.121
 4160SOL     OW16637   2.404   3.496   5.394
 4160SOL    HW116638   2.361   3.481   5.479
 4160SOL    HW216639   2.438   3.584   5.401
 4160SOL     MW16640   2.403   3.504   5.406
 4161SOL     OW16641   2.731   5.497   3.087
 4161SOL    HW116642   2.803   5.551   3.121
 4161SOL    HW216643   2.656   5.523   3.139
 4161SOL     MW16644   2.730   5.507   3.097
 4162SOL     OW16645   2.612   3.986   0.050
 4162SOL    HW116646   2.638   3.983  -0.042
 4162SOL    HW216647   2.672   3.928   0.094
 4162SOL     MW16648   2.622   3.979   0.044
 4163SOL     OW16649   2.840   6.079   3.019
 4163SOL    HW116650   2.772   6.015   2.994
 4163SOL    HW216651   2.921   6.038   2.991
 4163SOL     MW16652   2.841   6.066   3.012
 4164SOL     OW16653   3.120   2.285   5.470
 4164SOL    HW116654   3.083   2.198   5.451
 4164SOL    HW216655   3.058   2.346   5.432
 4164SOL     MW16656   3.108   2.281   5.464
 4165SOL     OW16657   4.485   0.169   3.834
 4165SOL    HW116658   4.462   0.250   3.882
 4165SOL    HW216659   4.479   0.194   3.743
 4165SOL     MW16660   4.481   0.182   3.829
 4166SOL     OW16661   3.799   5.188   0.216
 4166SOL    HW116662   3.784   5.096   0.240
 4166SOL    HW216663   3.805   5.187   0.121
 4166SOL     MW16664   3.798   5.177   0.208
 4167SOL     OW16665   1.874   1.280   4.534
 4167SOL    HW116666   1.852   1.360   4.485
 4167SOL    HW216667   1.957   1.300   4.575
 4167SOL     MW16668   1.881   1.292   4.533
 4168SOL     OW16669   4.044   5.454   2.240
 4168SOL    HW116670   4.093   5.506   2.304
 4168SOL    HW216671   4.087   5.471   2.158
 4168SOL     MW16672   4.055   5.462   2.238
 4169SOL     OW16673   1.282   4.048   0.656
 4169SOL    HW116674   1.197   4.005   0.640
 4169SOL    HW216675   1.317   4.064   0.569
 4169SOL     MW16676   1.276   4.045   0.644
 4170SOL     OW16677   1.161   0.407   5.719
 4170SOL    HW116678   1.161   0.452   5.634
 4170SOL    HW216679   1.190   0.473   5.781
 4170SOL     MW16680   1.165   0.420   5.716
 4171SOL     OW16681   4.231   2.345   3.462
 4171SOL    HW116682   4.161   2.411   3.462
 4171SOL    HW216683   4.212   2.290   3.387
 4171SOL     MW16684   4.220   2.346   3.453
 4172SOL     OW16685   4.001   1.743   1.385
 4172SOL    HW116686   3.995   1.707   1.296
 4172SOL    HW216687   4.036   1.671   1.436
 4172SOL     MW16688   4.005   1.730   1.380
 4173SOL     OW16689   0.081   0.434   3.733
 4173SOL    HW116690   0.121   0.503   3.680
 4173SOL    HW216691   0.135   0.431   3.811
 4173SOL     MW16692   0.092   0.442   3.736
 4174SOL     OW16693   1.806   5.376   5.337
 4174SOL    HW116694   1.755   5.452   5.365
 4174SOL    HW216695   1.895   5.408   5.331
 4174SOL     MW16696   1.811   5.389   5.339
 4175SOL     OW16697   4.821   1.176   0.866
 4175SOL    HW116698   4.863   1.091   0.852
 4175SOL    HW216699   4.784   1.170   0.953
 4175SOL     MW16700   4.822   1.165   0.874
 4176SOL     OW16701   1.719   3.205   3.507
 4176SOL    HW116702   1.642   3.221   3.451
 4176SOL    HW216703   1.683   3.199   3.595
 4176SOL     MW16704   1.705   3.206   3.511
 4177SOL     OW16705   3.411   2.948   2.537
 4177SOL    HW116706   3.324   2.962   2.576
 4177SOL    HW216707   3.405   2.863   2.496
 4177SOL     MW16708   3.400   2.940   2.537
 4178SOL     OW16709   1.639   3.322   3.919
 4178SOL    HW116710   1.652   3.384   3.847
 4178SOL    HW216711   1.697   3.353   3.988
 4178SOL     MW16712   1.648   3.333   3.919
 4179SOL     OW16713   0.799   3.559   3.890
 4179SOL    HW116714   0.808   3.545   3.795
 4179SOL    HW216715   0.709   3.589   3.901
 4179SOL     MW16716   0.789   3.561   3.879
 4180SOL     OW16717   2.640   2.453   5.154
 4180SOL    HW116718   2.577   2.382   5.171
 4180SOL    HW216719   2.590   2.532   5.170
 4180SOL     MW16720   2.626   2.454   5.158
 4181SOL     OW16721   4.667   1.688   0.289
 4181SOL    HW116722   4.724   1.613   0.311
 4181SOL    HW216723   4.581   1.649   0.280
 4181SOL     MW16724   4.664   1.674   0.291
 4182SOL     OW16725   0.021   4.617   3.677
 4182SOL    HW116726   0.059   4.651   3.759
 4182SOL    HW216727  -0.073   4.626   3.689
 4182SOL     MW16728   0.014   4.622   3.688
 4183SOL     OW16729   0.792   0.890   4.321
 4183SOL    HW116730   0.773   0.886   4.415
 4183SOL    HW216731   0.760   0.976   4.295
 4183SOL     MW16732   0.786   0.900   4.330
 4184SOL     OW16733   3.832   6.057   4.196
 4184SOL    HW116734   3.873   5.980   4.236
 4184SOL    HW216735   3.739   6.045   4.211
 4184SOL     MW16736   3.826   6.046   4.203
 4185SOL     OW16737   0.868   1.917   0.545
 4185SOL    HW116738   0.866   1.999   0.494
 4185SOL    HW216739   0.925   1.937   0.618
 4185SOL     MW16740   0.875   1.930   0.547
 4186SOL     OW16741   5.525   0.969   4.485
 4186SOL    HW116742   5.587   0.897   4.470
 4186SOL    HW216743   5.455   0.953   4.423
 4186SOL     MW16744   5.525   0.958   4.476
 4187SOL     OW16745   4.238   3.499   0.179
 4187SOL    HW116746   4.267   3.544   0.259
 4187SOL    HW216747   4.166   3.552   0.147
 4187SOL     MW16748   4.233   3.511   0.185
 4188SOL     OW16749   4.418   5.459   3.174
 4188SOL    HW116750   4.443   5.503   3.256
 4188SOL    HW216751   4.478   5.494   3.110
 4188SOL     MW16752   4.428   5.469   3.177
 4189SOL     OW16753   5.669   5.674   0.967
 4189SOL    HW116754   5.573   5.677   0.976
 4189SOL    HW216755   5.684   5.624   0.888
 4189SOL     MW16756   5.659   5.669   0.959
 4190SOL     OW16757   0.664   0.571   4.494
 4190SOL    HW116758   0.713   0.520   4.428
 4190SOL    HW216759   0.693   0.660   4.481
 4190SOL     MW16760   0.673   0.575   4.484
 4191SOL     OW16761   1.773   4.805   0.175
 4191SOL    HW116762   1.677   4.802   0.181
 4191SOL    HW216763   1.800   4.857   0.250
 4191SOL     MW16764   1.764   4.811   0.185
 4192SOL     OW16765   1.934   1.280   0.272
 4192SOL    HW116766   2.013   1.266   0.218
 4192SOL    HW216767   1.900   1.193   0.287
 4192SOL     MW16768   1.940   1.268   0.267
 4193SOL     OW16769   1.994   1.923   1.994
 4193SOL    HW116770   1.990   1.984   2.068
 4193SOL    HW216771   2.042   1.848   2.028
 4193SOL     MW16772   1.999   1.921   2.007
 4194SOL     OW16773   3.466   0.172   3.544
 4194SOL    HW116774   3.512   0.152   3.626
 4194SOL    HW216775   3.430   0.089   3.517
 4194SOL     MW16776   3.468   0.160   3.551
 4195SOL     OW16777   5.774   1.230   0.223
 4195SOL    HW116778   5.746   1.139   0.206
 4195SOL    HW216779   5.789   1.266   0.136
 4195SOL     MW16780   5.772   1.223   0.210
 4196SOL     OW16781   2.656   1.911   2.294
 4196SOL    HW116782   2.659   1.842   2.227
 4196SOL    HW216783   2.662   1.864   2.377
 4196SOL     MW16784   2.657   1.897   2.296
 4197SOL     OW16785   4.586   3.116   3.105
 4197SOL    HW116786   4.675   3.098   3.136
 4197SOL    HW216787   4.553   3.182   3.165
 4197SOL     MW16788   4.593   3.122   3.116
 4198SOL     OW16789   3.173   1.957   4.229
 4198SOL    HW116790   3.087   1.982   4.192
 4198SOL    HW216791   3.219   2.040   4.238
 4198SOL     MW16792   3.168   1.970   4.226
 4199SOL     OW16793   1.696   2.260   1.970
 4199SOL    HW116794   1.715   2.327   2.036
 4199SOL    HW216795   1.713   2.178   2.015
 4199SOL     MW16796   1.700   2.258   1.984
 4200SOL     OW16797   5.677   3.492   4.918
 4200SOL    HW116798   5.728   3.435   4.977
 4200SOL    HW216799   5.699   3.580   4.946
 4200SOL     MW16800   5.686   3.495   4.928
 4201SOL     OW16801   4.938   0.526   5.550
 4201SOL    HW116802   4.948   0.494   5.460
 4201SOL    HW216803   4.845   0.539   5.560
 4201SOL     MW16804   4.928   0.524   5.540
 4202SOL     OW16805   0.764   5.205   4.587
 4202SOL    HW116806   0.790   5.294   4.613
 4202SOL    HW216807   0.694   5.183   4.648
 4202SOL     MW16808   0.759   5.213   4.597
 4203SOL     OW16809   5.177   3.554   2.947
 4203SOL    HW116810   5.265   3.561   2.908
 4203SOL    HW216811   5.192   3.567   3.040
 4203SOL     MW16812   5.190   3.556   2.953
 4204SOL     OW16813   4.673   1.154   0.660
 4204SOL    HW116814   4.679   1.070   0.708
 4204SOL    HW216815   4.627   1.131   0.580
 4204SOL     MW16816   4.668   1.141   0.656
 4205SOL     OW16817   2.973   5.227   2.795
 4205SOL    HW116818   2.915   5.157   2.826
 4205SOL    HW216819   2.934   5.255   2.713
 4205SOL     MW16820   2.961   5.222   2.789
 4206SOL     OW16821   3.845   1.318   3.586
 4206SOL    HW116822   3.835   1.381   3.658
 4206SOL    HW216823   3.852   1.234   3.629
 4206SOL     MW16824   3.844   1.316   3.600
 4207SOL     OW16825   2.156   2.937   5.067
 4207SOL    HW116826   2.251   2.927   5.078
 4207SOL    HW216827   2.122   2.848   5.072
 4207SOL     MW16828   2.163   2.925   5.069
 4208SOL     OW16829   1.626   0.392   1.289
 4208SOL    HW116830   1.684   0.364   1.361
 4208SOL    HW216831   1.569   0.317   1.276
 4208SOL     MW16832   1.626   0.379   1.296
 4209SOL     OW16833   5.487   5.890   1.165
 4209SOL    HW116834   5.432   5.827   1.214
 4209SOL    HW216835   5.566   5.843   1.146
 4209SOL     MW16836   5.489   5.877   1.169
 4210SOL     OW16837   1.516   1.443   1.012
 4210SOL    HW116838   1.484   1.429   0.922
 4210SOL    HW216839   1.513   1.357   1.052
 4210SOL     MW16840   1.512   1.431   1.006
 4211SOL     OW16841   2.701   3.451   0.898
 4211SOL    HW116842   2.619   3.454   0.848
 4211SOL    HW216843   2.767   3.430   0.833
 4211SOL     MW16844   2.699   3.449   0.884
 4212SOL     OW16845   5.330   6.101   4.495
 4212SOL    HW116846   5.296   6.045   4.565
 4212SOL    HW216847   5.275   6.080   4.420
 4212SOL     MW16848   5.319   6.091   4.495
 4213SOL     OW16849   5.686   4.404   1.611
 4213SOL    HW116850   5.620   4.362   1.666
 4213SOL    HW216851   5.636   4.459   1.552
 4213SOL     MW16852   5.672   4.406   1.611
 4214SOL     OW16853   4.426   5.309   5.980
 4214SOL    HW116854   4.371   5.254   6.037
 4214SOL    HW216855   4.375   5.320   5.901
 4214SOL     MW16856   4.413   5.303   5.978
 4215SOL     OW16857   3.433   4.615   1.707
 4215SOL    HW116858   3.353   4.585   1.664
 4215SOL    HW216859   3.414   4.608   1.800
 4215SOL     MW16860   3.421   4.610   1.713
 4216SOL     OW16861   4.817   2.398   1.438
 4216SOL    HW116862   4.834   2.340   1.513
 4216SOL    HW216863   4.725   2.386   1.419
 4216SOL     MW16864   4.808   2.390   1.445
 4217SOL     OW16865   2.305   1.164   3.699
 4217SOL    HW116866   2.333   1.189   3.788
 4217SOL    HW216867   2.367   1.097   3.674
 4217SOL     MW16868   2.316   1.159   3.707
 4218SOL     OW16869   1.474   5.374   5.809
 4218SOL    HW116870   1.445   5.465   5.793
 4218SOL    HW216871   1.440   5.354   5.896
 4218SOL     MW16872   1.466   5.383   5.817
 4219SOL     OW16873   3.861   2.697   2.751
 4219SOL    HW116874   3.818   2.783   2.746
 4219SOL    HW216875   3.827   2.650   2.676
 4219SOL     MW16876   3.852   2.702   2.741
 4220SOL     OW16877   3.390   4.600   1.331
 4220SOL    HW116878   3.405   4.667   1.263
 4220SOL    HW216879   3.466   4.608   1.388
 4220SOL     MW16880   3.401   4.609   1.330
 4221SOL     OW16881   3.850   2.820   1.940
 4221SOL    HW116882   3.909   2.818   2.016
 4221SOL    HW216883   3.763   2.822   1.979
 4221SOL     MW16884   3.847   2.820   1.954
 4222SOL     OW16885   4.091   3.098   5.475
 4222SOL    HW116886   4.027   3.168   5.456
 4222SOL    HW216887   4.121   3.119   5.563
 4222SOL     MW16888   4.087   3.109   5.483
 4223SOL     OW16889   1.956   1.489   2.840
 4223SOL    HW116890   1.871   1.512   2.879
 4223SOL    HW216891   1.942   1.498   2.747
 4223SOL     MW16892   1.944   1.493   2.834
 4224SOL     OW16893   3.933   5.474   0.402
 4224SOL    HW116894   4.021   5.437   0.410
 4224SOL    HW216895   3.916   5.512   0.488
 4224SOL     MW16896   3.941   5.474   0.414
 4225SOL     OW16897   1.016   0.124   1.311
 4225SOL    HW116898   0.930   0.111   1.354
 4225SOL    HW216899   0.995   0.132   1.219
 4225SOL     MW16900   1.003   0.123   1.306
 4226SOL     OW16901   3.934   3.765   0.917
 4226SOL    HW116902   3.915   3.708   0.842
 4226SOL    HW216903   3.848   3.785   0.952
 4226SOL     MW16904   3.921   3.761   0.912
 4227SOL     OW16905   2.417   0.643   2.154
 4227SOL    HW116906   2.358   0.579   2.196
 4227SOL    HW216907   2.401   0.633   2.061
 4227SOL     MW16908   2.408   0.634   2.148
 4228SOL     OW16909   0.685   5.723   5.486
 4228SOL    HW116910   0.618   5.746   5.420
 4228SOL    HW216911   0.635   5.699   5.563
 4228SOL     MW16912   0.671   5.723   5.487
 4229SOL     OW16913   2.530   0.766   3.264
 4229SOL    HW116914   2.551   0.833   3.198
 4229SOL    HW216915   2.585   0.789   3.339
 4229SOL     MW16916   2.539   0.777   3.265
 4230SOL     OW16917   3.885   0.941   0.765
 4230SOL    HW116918   3.971   0.922   0.804
 4230SOL    HW216919   3.900   0.934   0.671
 4230SOL     MW16920   3.898   0.938   0.758
 4231SOL     OW16921   4.803   5.555   0.948
 4231SOL    HW116922   4.839   5.505   1.022
 4231SOL    HW216923   4.803   5.645   0.979
 4231SOL     MW16924   4.807   5.560   0.961
 4232SOL     OW16925   1.720   0.426   0.747
 4232SOL    HW116926   1.756   0.506   0.787
 4232SOL    HW216927   1.664   0.457   0.678
 4232SOL     MW16928   1.718   0.439   0.744
 4233SOL     OW16929   2.936   2.491   0.397
 4233SOL    HW116930   2.887   2.444   0.465
 4233SOL    HW216931   2.969   2.422   0.340
 4233SOL     MW16932   2.934   2.477   0.398
 4234SOL     OW16933   4.573   4.579   0.595
 4234SOL    HW116934   4.495   4.624   0.561
 4234SOL    HW216935   4.555   4.567   0.687
 4234SOL     MW16936   4.561   4.583   0.601
 4235SOL     OW16937   2.869   0.942   4.086
 4235SOL    HW116938   2.867   0.951   3.991
 4235SOL    HW216939   2.962   0.936   4.107
 4235SOL     MW16940   2.880   0.943   4.077
 4236SOL     OW16941   2.478   1.986   4.112
 4236SOL    HW116942   2.562   2.002   4.157
 4236SOL    HW216943   2.414   2.029   4.167
 4236SOL     MW16944   2.481   1.993   4.124
 4237SOL     OW16945   3.654   1.979   3.589
 4237SOL    HW116946   3.743   1.987   3.552
 4237SOL    HW216947   3.607   2.052   3.551
 4237SOL     MW16948   3.660   1.989   3.580
 4238SOL     OW16949   1.290   2.560   1.314
 4238SOL    HW116950   1.196   2.564   1.297
 4238SOL    HW216951   1.301   2.482   1.368
 4238SOL     MW16952   1.280   2.551   1.319
 4239SOL     OW16953   1.549   5.361   4.397
 4239SOL    HW116954   1.515   5.280   4.360
 4239SOL    HW216955   1.541   5.350   4.491
 4239SOL     MW16956   1.544   5.350   4.404
 4240SOL     OW16957   1.435   4.720   0.259
 4240SOL    HW116958   1.515   4.668   0.268
 4240SOL    HW216959   1.365   4.657   0.265
 4240SOL     MW16960   1.437   4.706   0.261
 4241SOL     OW16961   1.800   4.679   6.019
 4241SOL    HW116962   1.886   4.659   5.979
 4241SOL    HW216963   1.819   4.687   6.112
 4241SOL     MW16964   1.813   4.677   6.025
 4242SOL     OW16965   3.489   4.930   1.974
 4242SOL    HW116966   3.500   4.996   1.905
 4242SOL    HW216967   3.565   4.942   2.030
 4242SOL     MW16968   3.499   4.940   1.972
 4243SOL     OW16969   1.086   4.376   0.335
 4243SOL    HW116970   1.002   4.377   0.382
 4243SOL    HW216971   1.082   4.451   0.277
 4243SOL     MW16972   1.075   4.385   0.334
 4244SOL     OW16973   0.846   4.894   3.318
 4244SOL    HW116974   0.929   4.937   3.341
 4244SOL    HW216975   0.792   4.903   3.395
 4244SOL     MW16976   0.849   4.900   3.330
 4245SOL     OW16977   0.479   4.781   3.168
 4245SOL    HW116978   0.539   4.711   3.196
 4245SOL    HW216979   0.471   4.767   3.075
 4245SOL     MW16980   0.485   4.770   3.160
 4246SOL     OW16981   6.026   5.232   3.923
 4246SOL    HW116982   5.990   5.318   3.902
 4246SOL    HW216983   6.022   5.227   4.018
 4246SOL     MW16984   6.021   5.242   3.932
 4247SOL     OW16985   0.765   5.120   3.180
 4247SOL    HW116986   0.713   5.123   3.099
 4247SOL    HW216987   0.702   5.134   3.249
 4247SOL     MW16988   0.751   5.122   3.178
 4248SOL     OW16989   4.303   1.719   0.838
 4248SOL    HW116990   4.315   1.814   0.844
 4248SOL    HW216991   4.223   1.709   0.788
 4248SOL     MW16992   4.295   1.730   0.832
 4249SOL     OW16993   4.785   3.822   0.741
 4249SOL    HW116994   4.838   3.902   0.743
 4249SOL    HW216995   4.813   3.778   0.662
 4249SOL     MW16996   4.795   3.827   0.732
 4250SOL     OW16997   5.930   0.752   3.637
 4250SOL    HW116998   5.837   0.765   3.614
 4250SOL    HW216999   5.974   0.744   3.554
 4250SOL     MW17000   5.924   0.753   3.625
 4251SOL     OW17001   0.832   5.874   3.047
 4251SOL    HW117002   0.791   5.820   2.979
 4251SOL    HW217003   0.886   5.813   3.095
 4251SOL     MW17004   0.834   5.860   3.045
 4252SOL     OW17005   1.354   4.313   0.013
 4252SOL    HW117006   1.406   4.313  -0.068
 4252SOL    HW217007   1.374   4.230   0.053
 4252SOL     MW17008   1.362   4.303   0.008
 4253SOL     OW17009   3.836   6.109   3.080
 4253SOL    HW117010   3.809   6.017   3.086
 4253SOL    HW217011   3.870   6.118   2.992
 4253SOL     MW17012   3.836   6.099   3.070
 4254SOL     OW17013   5.547   4.206   0.722
 4254SOL    HW117014   5.570   4.142   0.790
 4254SOL    HW217015   5.566   4.290   0.762
 4254SOL     MW17016   5.552   4.208   0.735
 4255SOL     OW17017   4.788   4.986   5.521
 4255SOL    HW117018   4.694   4.980   5.499
 4255SOL    HW217019   4.824   5.042   5.453
 4255SOL     MW17020   4.781   4.992   5.510
 4256SOL     OW17021   1.929   3.058   3.049
 4256SOL    HW117022   1.961   3.052   2.959
 4256SOL    HW217023   1.910   3.150   3.061
 4256SOL     MW17024   1.930   3.068   3.040
 4257SOL     OW17025   5.281   3.922   4.835
 4257SOL    HW117026   5.340   3.956   4.766
 4257SOL    HW217027   5.271   3.995   4.895
 4257SOL     MW17028   5.287   3.935   4.834
 4258SOL     OW17029   4.788   0.029   5.333
 4258SOL    HW117030   4.811  -0.027   5.258
 4258SOL    HW217031   4.856   0.096   5.334
 4258SOL     MW17032   4.799   0.030   5.324
 4259SOL     OW17033   1.219   0.168   3.725
 4259SOL    HW117034   1.177   0.082   3.731
 4259SOL    HW217035   1.298   0.153   3.674
 4259SOL     MW17036   1.224   0.156   3.720
 4260SOL     OW17037   6.077   3.360   2.364
 4260SOL    HW117038   6.127   3.286   2.401
 4260SOL    HW217039   5.988   3.328   2.358
 4260SOL     MW17040   6.073   3.347   2.368
 4261SOL     OW17041   5.526   2.005   1.395
 4261SOL    HW117042   5.542   2.070   1.465
 4261SOL    HW217043   5.548   2.052   1.315
 4261SOL     MW17044   5.531   2.019   1.394
 4262SOL     OW17045   5.574   2.519   1.481
 4262SOL    HW117046   5.488   2.482   1.505
 4262SOL    HW217047   5.636   2.450   1.500
 4262SOL     MW17048   5.571   2.506   1.486
 4263SOL     OW17049   3.191   0.983   4.211
 4263SOL    HW117050   3.182   1.078   4.220
 4263SOL    HW217051   3.187   0.969   4.117
 4263SOL     MW17052   3.189   0.993   4.201
 4264SOL     OW17053   2.199   0.557   1.935
 4264SOL    HW117054   2.256   0.490   1.975
 4264SOL    HW217055   2.198   0.535   1.843
 4264SOL     MW17056   2.206   0.546   1.929
 4265SOL     OW17057   0.536   5.729   3.443
 4265SOL    HW117058   0.547   5.646   3.395
 4265SOL    HW217059   0.560   5.708   3.532
 4265SOL     MW17060   0.541   5.716   3.447
 4266SOL     OW17061   1.977   4.214   3.459
 4266SOL    HW117062   2.003   4.122   3.468
 4266SOL    HW217063   2.000   4.253   3.542
 4266SOL     MW17064   1.983   4.207   3.470
 4267SOL     OW17065   1.336   3.633   2.574
 4267SOL    HW117066   1.241   3.619   2.567
 4267SOL    HW217067   1.353   3.627   2.667
 4267SOL     MW17068   1.326   3.630   2.584
 4268SOL     OW17069   0.405   3.257   3.733
 4268SOL    HW117070   0.495   3.230   3.756
 4268SOL    HW217071   0.360   3.175   3.717
 4268SOL     MW17072   0.411   3.244   3.734
 4269SOL     OW17073   4.230   1.503   1.509
 4269SOL    HW117074   4.201   1.592   1.487
 4269SOL    HW217075   4.184   1.483   1.590
 4269SOL     MW17076   4.221   1.512   1.516
 4270SOL     OW17077   2.095   1.678   5.879
 4270SOL    HW117078   2.150   1.716   5.809
 4270SOL    HW217079   2.139   1.703   5.959
 4270SOL     MW17080   2.107   1.686   5.880
 4271SOL     OW17081   2.611   1.667   0.888
 4271SOL    HW117082   2.700   1.639   0.865
 4271SOL    HW217083   2.624   1.731   0.957
 4271SOL     MW17084   2.624   1.671   0.894
 4272SOL     OW17085   3.576   5.177   0.177
 4272SOL    HW117086   3.559   5.265   0.212
 4272SOL    HW217087   3.576   5.188   0.083
 4272SOL     MW17088   3.574   5.189   0.170
 4273SOL     OW17089   5.614   0.667   2.538
 4273SOL    HW117090   5.595   0.576   2.513
 4273SOL    HW217091   5.652   0.705   2.460
 4273SOL     MW17092   5.616   0.660   2.526
 4274SOL     OW17093   0.619   3.124   2.846
 4274SOL    HW117094   0.704   3.163   2.868
 4274SOL    HW217095   0.625   3.105   2.753
 4274SOL     MW17096   0.630   3.126   2.838
 4275SOL     OW17097   2.942   0.218   1.748
 4275SOL    HW117098   2.996   0.139   1.760
 4275SOL    HW217099   2.948   0.236   1.655
 4275SOL     MW17100   2.950   0.210   1.739
 4276SOL     OW17101   5.907   5.627   0.844
 4276SOL    HW117102   5.999   5.606   0.860
 4276SOL    HW217103   5.909   5.695   0.779
 4276SOL     MW17104   5.918   5.632   0.838
 4277SOL     OW17105   3.414   3.629   0.704
 4277SOL    HW117106   3.385   3.547   0.747
 4277SOL    HW217107   3.404   3.611   0.612
 4277SOL     MW17108   3.409   3.617   0.699
 4278SOL     OW17109   3.690   3.016   5.695
 4278SOL    HW117110   3.630   2.959   5.645
 4278SOL    HW217111   3.651   3.021   5.781
 4278SOL     MW17112   3.678   3.009   5.699
 4279SOL     OW17113   3.585   3.113   5.944
 4279SOL    HW117114   3.681   3.110   5.934
 4279SOL    HW217115   3.559   3.192   5.897
 4279SOL     MW17116   3.594   3.122   5.938
 4280SOL     OW17117   1.455   2.163   3.542
 4280SOL    HW117118   1.475   2.079   3.585
 4280SOL    HW217119   1.519   2.170   3.472
 4280SOL     MW17120   1.465   2.154   3.539
 4281SOL     OW17121   3.549   1.345   3.079
 4281SOL    HW117122   3.474   1.379   3.029
 4281SOL    HW217123   3.533   1.374   3.168
 4281SOL     MW17124   3.538   1.353   3.083
 4282SOL     OW17125   5.096   0.546   4.087
 4282SOL    HW117126   5.110   0.563   4.181
 4282SOL    HW217127   5.162   0.481   4.066
 4282SOL     MW17128   5.106   0.541   4.096
 4283SOL     OW17129   5.449   3.677   5.804
 4283SOL    HW117130   5.442   3.763   5.761
 4283SOL    HW217131   5.451   3.697   5.896
 4283SOL     MW17132   5.448   3.690   5.809
 4284SOL     OW17133   1.196   4.620   5.865
 4284SOL    HW117134   1.176   4.583   5.779
 4284SOL    HW217135   1.138   4.573   5.924
 4284SOL     MW17136   1.187   4.610   5.862
 4285SOL     OW17137   4.822   4.144   5.392
 4285SOL    HW117138   4.809   4.109   5.303
 4285SOL    HW217139   4.916   4.139   5.406
 4285SOL     MW17140   4.832   4.139   5.383
 4286SOL     OW17141   5.201   1.839   5.541
 4286SOL    HW117142   5.189   1.821   5.635
 4286SOL    HW217143   5.123   1.805   5.501
 4286SOL     MW17144   5.190   1.833   5.548
 4287SOL     OW17145   3.275   3.330   1.522
 4287SOL    HW117146   3.294   3.267   1.451
 4287SOL    HW217147   3.315   3.411   1.492
 4287SOL     MW17148   3.282   3.332   1.510
 4288SOL     OW17149   4.141   5.046   3.369
 4288SOL    HW117150   4.163   5.115   3.432
 4288SOL    HW217151   4.153   5.086   3.284
 4288SOL     MW17152   4.145   5.059   3.367
 4289SOL     OW17153   5.336   3.360   0.672
 4289SOL    HW117154   5.260   3.307   0.648
 4289SOL    HW217155   5.317   3.447   0.638
 4289SOL     MW17156   5.325   3.364   0.665
 4290SOL     OW17157   0.171   0.381   4.887
 4290SOL    HW117158   0.257   0.338   4.883
 4290SOL    HW217159   0.190   0.467   4.923
 4290SOL     MW17160   0.184   0.386   4.891
 4291SOL     OW17161   0.510   3.377   0.436
 4291SOL    HW117162   0.437   3.361   0.497
 4291SOL    HW217163   0.568   3.303   0.447
 4291SOL     MW17164   0.508   3.367   0.444
 4292SOL     OW17165   1.314   4.572   4.110
 4292SOL    HW117166   1.258   4.645   4.137
 4292SOL    HW217167   1.299   4.563   4.016
 4292SOL     MW17168   1.306   4.580   4.102
 4293SOL     OW17169   4.774   2.293   5.548
 4293SOL    HW117170   4.797   2.322   5.459
 4293SOL    HW217171   4.758   2.200   5.539
 4293SOL     MW17172   4.775   2.286   5.536
 4294SOL     OW17173   1.825   4.937   5.283
 4294SOL    HW117174   1.743   4.983   5.262
 4294SOL    HW217175   1.873   4.938   5.201
 4294SOL     MW17176   1.821   4.943   5.270
 4295SOL     OW17177   2.609   1.503   2.486
 4295SOL    HW117178   2.666   1.452   2.544
 4295SOL    HW217179   2.641   1.483   2.399
 4295SOL     MW17180   2.620   1.494   2.483
 4296SOL     OW17181   3.135   3.558   4.057
 4296SOL    HW117182   3.087   3.491   4.107
 4296SOL    HW217183   3.079   3.576   3.982
 4296SOL     MW17184   3.123   3.552   4.054
 4297SOL     OW17185   0.215   4.328   1.206
 4297SOL    HW117186   0.175   4.251   1.165
 4297SOL    HW217187   0.211   4.309   1.299
 4297SOL     MW17188   0.210   4.316   1.212
 4298SOL     OW17189   0.961   1.465   4.840
 4298SOL    HW117190   0.875   1.424   4.848
 4298SOL    HW217191   0.990   1.441   4.753
 4298SOL     MW17192   0.954   1.457   4.830
 4299SOL     OW17193   2.425   4.971   4.348
 4299SOL    HW117194   2.508   4.966   4.298
 4299SOL    HW217195   2.452   4.965   4.439
 4299SOL     MW17196   2.438   4.970   4.352
 4300SOL     OW17197   1.053   2.284   5.370
 4300SOL    HW117198   1.132   2.280   5.314
 4300SOL    HW217199   1.009   2.202   5.353
 4300SOL     MW17200   1.058   2.274   5.361
 4301SOL     OW17201   1.304   4.015   0.043
 4301SOL    HW117202   1.240   4.066  -0.007
 4301SOL    HW217203   1.267   3.927   0.046
 4301SOL     MW17204   1.292   4.011   0.037
 4302SOL     OW17205   3.326   5.508   3.572
 4302SOL    HW117206   3.333   5.514   3.477
 4302SOL    HW217207   3.411   5.536   3.604
 4302SOL     MW17208   3.337   5.512   3.565
 4303SOL     OW17209   3.434   6.065   5.271
 4303SOL    HW117210   3.487   5.991   5.302
 4303SOL    HW217211   3.354   6.059   5.322
 4303SOL     MW17212   3.431   6.055   5.281
 4304SOL     OW17213   1.867   0.856   5.169
 4304SOL    HW117214   1.837   0.878   5.080
 4304SOL    HW217215   1.843   0.764   5.180
 4304SOL     MW17216   1.861   0.847   5.160
 4305SOL     OW17217   5.950   2.539   5.175
 4305SOL    HW117218   6.036   2.499   5.161
 4305SOL    HW217219   5.927   2.575   5.090
 4305SOL     MW17220   5.958   2.538   5.163
 4306SOL     OW17221   3.170   1.412   5.099
 4306SOL    HW117222   3.148   1.441   5.188
 4306SOL    HW217223   3.136   1.324   5.094
 4306SOL     MW17224   3.164   1.406   5.109
 4307SOL     OW17225   3.422   3.289   1.236
 4307SOL    HW117226   3.405   3.327   1.149
 4307SOL    HW217227   3.360   3.217   1.242
 4307SOL     MW17228   3.412   3.285   1.226
 4308SOL     OW17229   2.006   2.070   0.659
 4308SOL    HW117230   2.027   2.030   0.744
 4308SOL    HW217231   2.081   2.125   0.640
 4308SOL     MW17232   2.018   2.071   0.667
 4309SOL     OW17233   3.619   3.139   2.118
 4309SOL    HW117234   3.665   3.055   2.131
 4309SOL    HW217235   3.640   3.190   2.195
 4309SOL     MW17236   3.627   3.135   2.128
 4310SOL     OW17237   3.119   2.241   1.200
 4310SOL    HW117238   3.207   2.253   1.236
 4310SOL    HW217239   3.131   2.242   1.106
 4310SOL     MW17240   3.131   2.242   1.193
 4311SOL     OW17241   4.838   3.280   1.923
 4311SOL    HW117242   4.876   3.228   1.851
 4311SOL    HW217243   4.910   3.294   1.983
 4311SOL     MW17244   4.851   3.276   1.921
 4312SOL     OW17245   3.384   4.590   3.635
 4312SOL    HW117246   3.381   4.676   3.591
 4312SOL    HW217247   3.381   4.611   3.727
 4312SOL     MW17248   3.384   4.603   3.640
 4313SOL     OW17249   1.397   5.156   3.269
 4313SOL    HW117250   1.377   5.197   3.354
 4313SOL    HW217251   1.483   5.119   3.280
 4313SOL     MW17252   1.405   5.157   3.281
 4314SOL     OW17253   1.256   1.685   2.329
 4314SOL    HW117254   1.325   1.722   2.274
 4314SOL    HW217255   1.301   1.622   2.384
 4314SOL     MW17256   1.270   1.682   2.329
 4315SOL     OW17257   0.864   2.358   1.098
 4315SOL    HW117258   0.772   2.334   1.110
 4315SOL    HW217259   0.867   2.401   1.014
 4315SOL     MW17260   0.853   2.360   1.090
 4316SOL     OW17261   1.194   4.838   1.473
 4316SOL    HW117262   1.259   4.772   1.498
 4316SOL    HW217263   1.208   4.851   1.380
 4316SOL     MW17264   1.203   4.832   1.465
 4317SOL     OW17265   1.238   0.944   5.139
 4317SOL    HW117266   1.280   1.026   5.113
 4317SOL    HW217267   1.236   0.947   5.234
 4317SOL     MW17268   1.243   0.954   5.147
 4318SOL     OW17269   0.821   0.749   2.077
 4318SOL    HW117270   0.767   0.675   2.047
 4318SOL    HW217271   0.874   0.711   2.147
 4318SOL     MW17272   0.821   0.735   2.082
 4319SOL     OW17273   2.664   0.207   3.649
 4319SOL    HW117274   2.593   0.204   3.585
 4319SOL    HW217275   2.714   0.128   3.632
 4319SOL     MW17276   2.661   0.197   3.639
 4320SOL     OW17277   2.904   3.464   4.713
 4320SOL    HW117278   2.835   3.527   4.738
 4320SOL    HW217279   2.869   3.419   4.638
 4320SOL     MW17280   2.892   3.467   4.707
 4321SOL     OW17281   2.231   2.868   1.198
 4321SOL    HW117282   2.188   2.875   1.285
 4321SOL    HW217283   2.251   2.958   1.175
 4321SOL     MW17284   2.228   2.879   1.206
 4322SOL     OW17285   3.347   3.905   0.372
 4322SOL    HW117286   3.354   3.826   0.318
 4322SOL    HW217287   3.276   3.955   0.332
 4322SOL     MW17288   3.339   3.901   0.361
 4323SOL     OW17289   2.849   3.463   0.684
 4323SOL    HW117290   2.819   3.374   0.706
 4323SOL    HW217291   2.803   3.484   0.604
 4323SOL     MW17292   2.840   3.454   0.677
 4324SOL     OW17293   2.544   5.952   4.836
 4324SOL    HW117294   2.488   5.875   4.844
 4324SOL    HW217295   2.528   5.985   4.748
 4324SOL     MW17296   2.535   5.947   4.827
 4325SOL     OW17297   0.739   1.080   2.305
 4325SOL    HW117298   0.689   1.083   2.387
 4325SOL    HW217299   0.676   1.051   2.240
 4325SOL     MW17300   0.725   1.077   2.307
 4326SOL     OW17301   4.699   3.979   1.841
 4326SOL    HW117302   4.714   4.063   1.796
 4326SOL    HW217303   4.683   4.003   1.931
 4326SOL     MW17304   4.699   3.992   1.846
 4327SOL     OW17305   3.479   2.293   4.566
 4327SOL    HW117306   3.406   2.278   4.505
 4327SOL    HW217307   3.557   2.272   4.515
 4327SOL     MW17308   3.480   2.289   4.552
 4328SOL     OW17309   2.886   1.686   1.118
 4328SOL    HW117310   2.976   1.686   1.151
 4328SOL    HW217311   2.890   1.735   1.037
 4328SOL     MW17312   2.897   1.692   1.113
 4329SOL     OW17313   4.514   2.206   0.970
 4329SOL    HW117314   4.545   2.283   0.921
 4329SOL    HW217315   4.529   2.133   0.912
 4329SOL     MW17316   4.520   2.207   0.957
 4330SOL     OW17317   2.724   5.096   3.564
 4330SOL    HW117318   2.720   5.181   3.518
 4330SOL    HW217319   2.809   5.096   3.607
 4330SOL     MW17320   2.734   5.106   3.563
 4331SOL     OW17321   3.459   5.115   4.490
 4331SOL    HW117322   3.536   5.093   4.437
 4331SOL    HW217323   3.492   5.122   4.579
 4331SOL     MW17324   3.472   5.113   4.494
 4332SOL     OW17325   2.528   5.766   2.252
 4332SOL    HW117326   2.484   5.846   2.222
 4332SOL    HW217327   2.491   5.698   2.197
 4332SOL     MW17328   2.518   5.768   2.242
 4333SOL     OW17329   0.522   1.811   4.803
 4333SOL    HW117330   0.435   1.809   4.763
 4333SOL    HW217331   0.508   1.847   4.889
 4333SOL     MW17332   0.510   1.815   4.808
 4334SOL     OW17333   3.100   4.460   4.561
 4334SOL    HW117334   3.138   4.532   4.509
 4334SOL    HW217335   3.008   4.482   4.566
 4334SOL     MW17336   3.094   4.472   4.555
 4335SOL     OW17337   3.837   4.390   0.436
 4335SOL    HW117338   3.878   4.469   0.473
 4335SOL    HW217339   3.835   4.407   0.343
 4335SOL     MW17340   3.842   4.402   0.430
 4336SOL     OW17341   4.776   4.226   0.991
 4336SOL    HW117342   4.776   4.266   0.904
 4336SOL    HW217343   4.832   4.282   1.043
 4336SOL     MW17344   4.782   4.237   0.987
 4337SOL     OW17345   0.073   1.885   0.588
 4337SOL    HW117346   0.098   1.800   0.626
 4337SOL    HW217347   0.072   1.868   0.494
 4337SOL     MW17348   0.076   1.872   0.581
 4338SOL     OW17349   2.685   1.919   4.288
 4338SOL    HW117350   2.686   1.863   4.366
 4338SOL    HW217351   2.738   1.872   4.225
 4338SOL     MW17352   2.691   1.906   4.290
 4339SOL     OW17353   0.239   2.731   1.246
 4339SOL    HW117354   0.280   2.776   1.321
 4339SOL    HW217355   0.192   2.800   1.201
 4339SOL     MW17356   0.239   2.745   1.250
 4340SOL     OW17357   5.569   4.989   4.655
 4340SOL    HW117358   5.520   4.915   4.694
 4340SOL    HW217359   5.555   4.980   4.562
 4340SOL     MW17360   5.561   4.979   4.649
 4341SOL     OW17361   4.698   3.007   2.668
 4341SOL    HW117362   4.676   3.021   2.576
 4341SOL    HW217363   4.763   3.074   2.687
 4341SOL     MW17364   4.703   3.017   2.659
 4342SOL     OW17365   6.091   0.772   5.079
 4342SOL    HW117366   6.092   0.697   5.138
 4342SOL    HW217367   6.017   0.756   5.021
 4342SOL     MW17368   6.082   0.761   5.079
 4343SOL     OW17369   1.640   0.048   1.111
 4343SOL    HW117370   1.704   0.015   1.175
 4343SOL    HW217371   1.651   0.142   1.114
 4343SOL     MW17372   1.649   0.055   1.119
 4344SOL     OW17373   1.628   4.387   1.745
 4344SOL    HW117374   1.549   4.439   1.758
 4344SOL    HW217375   1.646   4.394   1.652
 4344SOL     MW17376   1.621   4.394   1.736
 4345SOL     OW17377   3.311   4.652   4.399
 4345SOL    HW117378   3.354   4.738   4.397
 4345SOL    HW217379   3.328   4.620   4.487
 4345SOL     MW17380   3.318   4.659   4.409
 4346SOL     OW17381   2.176   3.726   4.366
 4346SOL    HW117382   2.105   3.722   4.431
 4346SOL    HW217383   2.133   3.708   4.284
 4346SOL     MW17384   2.162   3.723   4.365
 4347SOL     OW17385   4.880   4.602   2.067
 4347SOL    HW117386   4.839   4.678   2.025
 4347SOL    HW217387   4.808   4.556   2.107
 4347SOL     MW17388   4.866   4.606   2.067
 4348SOL     OW17389   3.648   5.588   1.172
 4348SOL    HW117390   3.732   5.606   1.128
 4348SOL    HW217391   3.655   5.634   1.255
 4348SOL     MW17392   3.659   5.596   1.177
 4349SOL     OW17393   1.715   3.292   1.501
 4349SOL    HW117394   1.635   3.241   1.520
 4349SOL    HW217395   1.706   3.370   1.554
 4349SOL     MW17396   1.704   3.295   1.510
 4350SOL     OW17397   0.050   5.086   5.201
 4350SOL    HW117398   0.058   5.129   5.115
 4350SOL    HW217399  -0.036   5.111   5.232
 4350SOL     MW17400   0.041   5.094   5.194
 4351SOL     OW17401   5.030   2.712   4.455
 4351SOL    HW117402   5.113   2.698   4.500
 4351SOL    HW217403   5.050   2.701   4.363
 4351SOL     MW17404   5.042   2.709   4.450
 4352SOL     OW17405   4.290   0.068   2.285
 4352SOL    HW117406   4.221   0.001   2.281
 4352SOL    HW217407   4.301   0.096   2.195
 4352SOL     MW17408   4.283   0.063   2.274
 4353SOL     OW17409   3.508   2.185   0.825
 4353SOL    HW117410   3.549   2.221   0.746
 4353SOL    HW217411   3.421   2.160   0.797
 4353SOL     MW17412   3.503   2.187   0.812
 4354SOL     OW17413   3.255   5.584   2.621
 4354SOL    HW117414   3.177   5.531   2.642
 4354SOL    HW217415   3.277   5.559   2.532
 4354SOL     MW17416   3.248   5.574   2.613
 4355SOL     OW17417   5.352   2.467   1.777
 4355SOL    HW117418   5.375   2.443   1.867
 4355SOL    HW217419   5.362   2.562   1.775
 4355SOL     MW17420   5.356   2.476   1.788
 4356SOL     OW17421   1.171   3.967   1.102
 4356SOL    HW117422   1.115   3.893   1.075
 4356SOL    HW217423   1.168   3.963   1.197
 4356SOL     MW17424   1.164   3.957   1.110
 4357SOL     OW17425   5.193   0.415   2.774
 4357SOL    HW117426   5.207   0.323   2.748
 4357SOL    HW217427   5.218   0.417   2.865
 4357SOL     MW17428   5.198   0.404   2.782
 4358SOL     OW17429   5.600   0.701   5.374
 4358SOL    HW117430   5.596   0.755   5.453
 4358SOL    HW217431   5.637   0.618   5.404
 4358SOL     MW17432   5.604   0.697   5.387
 4359SOL     OW17433   0.941   1.159   4.988
 4359SOL    HW117434   0.926   1.208   5.069
 4359SOL    HW217435   0.854   1.135   4.959
 4359SOL     MW17436   0.929   1.162   4.995
 4360SOL     OW17437   1.898   2.359   5.263
 4360SOL    HW117438   1.963   2.368   5.192
 4360SOL    HW217439   1.944   2.310   5.330
 4360SOL     MW17440   1.912   2.355   5.262
 4361SOL     OW17441   3.582   4.300   2.738
 4361SOL    HW117442   3.500   4.252   2.750
 4361SOL    HW217443   3.561   4.365   2.671
 4361SOL     MW17444   3.569   4.302   2.731
 4362SOL     OW17445   3.889   3.262   2.079
 4362SOL    HW117446   3.960   3.227   2.133
 4362SOL    HW217447   3.900   3.356   2.085
 4362SOL     MW17448   3.899   3.269   2.086
 4363SOL     OW17449   4.580   2.578   0.659
 4363SOL    HW117450   4.543   2.537   0.738
 4363SOL    HW217451   4.665   2.609   0.686
 4363SOL     MW17452   4.585   2.576   0.671
 4364SOL     OW17453   3.478   0.990   5.028
 4364SOL    HW117454   3.476   0.906   4.981
 4364SOL    HW217455   3.511   0.967   5.114
 4364SOL     MW17456   3.481   0.977   5.033
 4365SOL     OW17457   0.155   2.208   0.920
 4365SOL    HW117458   0.072   2.255   0.935
 4365SOL    HW217459   0.217   2.251   0.978
 4365SOL     MW17460   0.152   2.219   0.929
 4366SOL     OW17461   0.429   6.115   3.638
 4366SOL    HW117462   0.510   6.098   3.589
 4366SOL    HW217463   0.440   6.067   3.718
 4366SOL     MW17464   0.440   6.108   3.641
 4367SOL     OW17465   3.401   1.626   3.550
 4367SOL    HW117466   3.352   1.627   3.467
 4367SOL    HW217467   3.383   1.711   3.589
 4367SOL     MW17468   3.393   1.636   3.545
 4368SOL     OW17469   2.216   3.292   5.946
 4368SOL    HW117470   2.127   3.288   5.909
 4368SOL    HW217471   2.270   3.318   5.873
 4368SOL     MW17472   2.212   3.295   5.933
 4369SOL     OW17473   1.949   0.500   3.555
 4369SOL    HW117474   1.927   0.498   3.649
 4369SOL    HW217475   1.981   0.588   3.541
 4369SOL     MW17476   1.950   0.510   3.565
 4370SOL     OW17477   3.262   2.011   5.649
 4370SOL    HW117478   3.213   2.093   5.663
 4370SOL    HW217479   3.203   1.943   5.680
 4370SOL     MW17480   3.249   2.013   5.654
 4371SOL     OW17481   3.541   5.757   4.785
 4371SOL    HW117482   3.627   5.780   4.823
 4371SOL    HW217483   3.563   5.709   4.706
 4371SOL     MW17484   3.554   5.754   4.780
 4372SOL     OW17485   3.779   3.236   3.065
 4372SOL    HW117486   3.721   3.298   3.018
 4372SOL    HW217487   3.755   3.245   3.156
 4372SOL     MW17488   3.769   3.245   3.070
 4373SOL     OW17489   4.519   1.241   2.878
 4373SOL    HW117490   4.506   1.211   2.787
 4373SOL    HW217491   4.556   1.328   2.868
 4373SOL     MW17492   4.521   1.248   2.866
 4374SOL     OW17493   2.049   5.704   1.000
 4374SOL    HW117494   2.133   5.751   1.012
 4374SOL    HW217495   1.999   5.760   0.942
 4374SOL     MW17496   2.054   5.716   0.994
 4375SOL     OW17497   3.556   2.221   2.405
 4375SOL    HW117498   3.547   2.133   2.367
 4375SOL    HW217499   3.625   2.262   2.354
 4375SOL     MW17500   3.563   2.215   2.394
 4376SOL     OW17501   1.952   1.005   5.918
 4376SOL    HW117502   1.900   1.026   5.997
 4376SOL    HW217503   2.040   1.031   5.941
 4376SOL     MW17504   1.956   1.010   5.931
 4377SOL     OW17505   4.512   0.649   4.553
 4377SOL    HW117506   4.513   0.702   4.473
 4377SOL    HW217507   4.602   0.653   4.585
 4377SOL     MW17508   4.523   0.656   4.547
 4378SOL     OW17509   0.237   3.166   2.942
 4378SOL    HW117510   0.328   3.182   2.968
 4378SOL    HW217511   0.214   3.242   2.889
 4378SOL     MW17512   0.245   3.177   2.939
 4379SOL     OW17513   3.689   4.456   2.085
 4379SOL    HW117514   3.715   4.546   2.061
 4379SOL    HW217515   3.657   4.464   2.174
 4379SOL     MW17516   3.688   4.468   2.093
 4380SOL     OW17517   0.993   2.544   3.431
 4380SOL    HW117518   0.901   2.517   3.437
 4380SOL    HW217519   1.006   2.562   3.338
 4380SOL     MW17520   0.984   2.543   3.421
 4381SOL     OW17521   5.932   1.032   1.820
 4381SOL    HW117522   6.028   1.033   1.816
 4381SOL    HW217523   5.911   1.106   1.876
 4381SOL     MW17524   5.941   1.041   1.826
 4382SOL     OW17525   1.138   3.115   0.209
 4382SOL    HW117526   1.225   3.092   0.174
 4382SOL    HW217527   1.157   3.153   0.294
 4382SOL     MW17528   1.151   3.117   0.215
 4383SOL     OW17529   0.251   1.872   5.119
 4383SOL    HW117530   0.217   1.872   5.029
 4383SOL    HW217531   0.233   1.959   5.152
 4383SOL     MW17532   0.245   1.882   5.112
 4384SOL     OW17533   3.132   3.667   3.591
 4384SOL    HW117534   3.047   3.672   3.637
 4384SOL    HW217535   3.148   3.574   3.582
 4384SOL     MW17536   3.123   3.656   3.595
 4385SOL     OW17537   5.703   6.074   5.848
 4385SOL    HW117538   5.625   6.042   5.801
 4385SOL    HW217539   5.684   6.057   5.939
 4385SOL     MW17540   5.691   6.068   5.853
 4386SOL     OW17541   3.558   2.054   5.446
 4386SOL    HW117542   3.480   2.066   5.391
 4386SOL    HW217543   3.592   1.970   5.421
 4386SOL     MW17544   3.553   2.046   5.436
 4387SOL     OW17545   1.805   5.362   0.379
 4387SOL    HW117546   1.713   5.353   0.352
 4387SOL    HW217547   1.801   5.372   0.473
 4387SOL     MW17548   1.794   5.362   0.387
 4388SOL     OW17549   3.540   6.075   0.984
 4388SOL    HW117550   3.504   6.124   1.059
 4388SOL    HW217551   3.467   6.071   0.923
 4388SOL     MW17552   3.527   6.081   0.986
 4389SOL     OW17553   0.146   6.025   1.482
 4389SOL    HW117554   0.242   6.016   1.491
 4389SOL    HW217555   0.131   6.023   1.389
 4389SOL     MW17556   0.156   6.023   1.472
 4390SOL     OW17557   5.758   3.958   5.601
 4390SOL    HW117558   5.708   4.040   5.593
 4390SOL    HW217559   5.768   3.945   5.694
 4390SOL     MW17560   5.753   3.966   5.611
 4391SOL     OW17561   2.329   4.353   3.042
 4391SOL    HW117562   2.291   4.364   3.130
 4391SOL    HW217563   2.287   4.274   3.010
 4391SOL     MW17564   2.319   4.345   3.049
 4392SOL     OW17565   2.979   3.049   2.877
 4392SOL    HW117566   3.011   3.011   2.795
 4392SOL    HW217567   2.906   2.994   2.901
 4392SOL     MW17568   2.974   3.038   2.870
 4393SOL     OW17569   1.497   1.031   2.865
 4393SOL    HW117570   1.551   0.973   2.919
 4393SOL    HW217571   1.470   0.977   2.792
 4393SOL     MW17572   1.500   1.018   2.863
 4394SOL     OW17573   5.978   5.604   2.670
 4394SOL    HW117574   5.925   5.535   2.712
 4394SOL    HW217575   6.051   5.557   2.632
 4394SOL     MW17576   5.980   5.590   2.670
 4395SOL     OW17577   1.803   4.180   1.960
 4395SOL    HW117578   1.885   4.154   2.003
 4395SOL    HW217579   1.798   4.127   1.882
 4395SOL     MW17580   1.812   4.171   1.956
 4396SOL     OW17581   1.620   5.592   3.595
 4396SOL    HW117582   1.703   5.603   3.548
 4396SOL    HW217583   1.644   5.595   3.686
 4396SOL     MW17584   1.633   5.593   3.600
 4397SOL     OW17585   5.757   0.129   0.840
 4397SOL    HW117586   5.742   0.089   0.927
 4397SOL    HW217587   5.680   0.104   0.790
 4397SOL     MW17588   5.746   0.121   0.845
 4398SOL     OW17589   1.078   5.631   2.472
 4398SOL    HW117590   1.134   5.704   2.444
 4398SOL    HW217591   1.084   5.632   2.567
 4398SOL     MW17592   1.086   5.640   2.480
 4399SOL     OW17593   2.625   4.704   0.917
 4399SOL    HW117594   2.710   4.680   0.879
 4399SOL    HW217595   2.643   4.715   1.010
 4399SOL     MW17596   2.637   4.703   0.923
 4400SOL     OW17597   0.968   5.670   2.288
 4400SOL    HW117598   0.964   5.626   2.203
 4400SOL    HW217599   1.021   5.747   2.272
 4400SOL     MW17600   0.974   5.674   2.276
 4401SOL     OW17601   4.037   5.992   5.433
 4401SOL    HW117602   3.952   6.018   5.396
 4401SOL    HW217603   4.090   5.971   5.357
 4401SOL     MW17604   4.033   5.993   5.420
 4402SOL     OW17605   2.339   1.018   0.926
 4402SOL    HW117606   2.317   0.973   0.844
 4402SOL    HW217607   2.367   1.104   0.899
 4402SOL     MW17608   2.339   1.022   0.913
 4403SOL     OW17609   1.144   5.660   4.778
 4403SOL    HW117610   1.149   5.755   4.768
 4403SOL    HW217611   1.128   5.628   4.689
 4403SOL     MW17612   1.143   5.668   4.766
 4404SOL     OW17613   1.424   2.024   5.533
 4404SOL    HW117614   1.337   2.033   5.573
 4404SOL    HW217615   1.419   2.077   5.455
 4404SOL     MW17616   1.413   2.032   5.529
 4405SOL     OW17617   3.560   0.557   0.836
 4405SOL    HW117618   3.600   0.469   0.829
 4405SOL    HW217619   3.514   0.568   0.754
 4405SOL     MW17620   3.560   0.547   0.826
 4406SOL     OW17621   0.187   4.897   2.141
 4406SOL    HW117622   0.239   4.834   2.089
 4406SOL    HW217623   0.175   4.970   2.082
 4406SOL     MW17624   0.192   4.898   2.128
 4407SOL     OW17625   4.980   4.906   1.377
 4407SOL    HW117626   4.901   4.950   1.345
 4407SOL    HW217627   4.951   4.856   1.452
 4407SOL     MW17628   4.967   4.905   1.382
 4408SOL     OW17629   0.922   3.899   3.509
 4408SOL    HW117630   0.837   3.943   3.518
 4408SOL    HW217631   0.985   3.964   3.537
 4408SOL     MW17632   0.919   3.912   3.514
 4409SOL     OW17633   4.063   0.763   3.775
 4409SOL    HW117634   3.991   0.701   3.794
 4409SOL    HW217635   4.068   0.764   3.680
 4409SOL     MW17636   4.055   0.755   3.766
 4410SOL     OW17637   0.075   5.101   6.053
 4410SOL    HW117638   0.155   5.153   6.041
 4410SOL    HW217639   0.066   5.096   6.148
 4410SOL     MW17640   0.084   5.107   6.063
 4411SOL     OW17641   2.857   2.570   2.549
 4411SOL    HW117642   2.767   2.603   2.537
 4411SOL    HW217643   2.864   2.556   2.642
 4411SOL     MW17644   2.847   2.572   2.558
 4412SOL     OW17645   4.769   3.323   0.078
 4412SOL    HW117646   4.858   3.353   0.058
 4412SOL    HW217647   4.765   3.325   0.173
 4412SOL     MW17648   4.779   3.327   0.087
 4413SOL     OW17649   1.184   5.161   3.574
 4413SOL    HW117650   1.149   5.147   3.663
 4413SOL    HW217651   1.114   5.132   3.517
 4413SOL     MW17652   1.171   5.156   3.578
 4414SOL     OW17653   0.265   0.873   0.870
 4414SOL    HW117654   0.169   0.868   0.861
 4414SOL    HW217655   0.282   0.966   0.884
 4414SOL     MW17656   0.255   0.884   0.871
 4415SOL     OW17657   5.532   1.216   0.280
 4415SOL    HW117658   5.481   1.178   0.208
 4415SOL    HW217659   5.619   1.181   0.269
 4415SOL     MW17660   5.536   1.207   0.270
 4416SOL     OW17661   6.078   2.969   1.836
 4416SOL    HW117662   6.053   3.058   1.864
 4416SOL    HW217663   6.080   2.974   1.741
 4416SOL     MW17664   6.075   2.980   1.828
 4417SOL     OW17665   0.555   2.515   0.777
 4417SOL    HW117666   0.470   2.524   0.821
 4417SOL    HW217667   0.611   2.576   0.822
 4417SOL     MW17668   0.551   2.523   0.788
 4418SOL     OW17669   4.794   1.530   3.850
 4418SOL    HW117670   4.889   1.518   3.854
 4418SOL    HW217671   4.766   1.473   3.779
 4418SOL     MW17672   4.802   1.521   3.842
 4419SOL     OW17673   1.155   3.078   4.591
 4419SOL    HW117674   1.103   2.999   4.572
 4419SOL    HW217675   1.172   3.071   4.685
 4419SOL     MW17676   1.151   3.067   4.600
 4420SOL     OW17677   3.782   5.326   5.999
 4420SOL    HW117678   3.825   5.402   5.958
 4420SOL    HW217679   3.846   5.293   6.061
 4420SOL     MW17680   3.795   5.331   6.001
 4421SOL     OW17681   0.435   1.551   4.071
 4421SOL    HW117682   0.505   1.502   4.026
 4421SOL    HW217683   0.372   1.484   4.096
 4421SOL     MW17684   0.436   1.537   4.069
 4422SOL     OW17685   0.405   3.776   3.950
 4422SOL    HW117686   0.491   3.787   3.993
 4422SOL    HW217687   0.422   3.794   3.858
 4422SOL     MW17688   0.417   3.780   3.944
 4423SOL     OW17689   0.543   2.080   4.244
 4423SOL    HW117690   0.638   2.078   4.260
 4423SOL    HW217691   0.536   2.089   4.150
 4423SOL     MW17692   0.554   2.081   4.235
 4424SOL     OW17693   2.779   4.154   3.106
 4424SOL    HW117694   2.802   4.190   3.020
 4424SOL    HW217695   2.763   4.062   3.090
 4424SOL     MW17696   2.780   4.148   3.094
 4425SOL     OW17697   4.084   5.872   4.906
 4425SOL    HW117698   4.015   5.850   4.969
 4425SOL    HW217699   4.080   5.967   4.900
 4425SOL     MW17700   4.075   5.881   4.913
 4426SOL     OW17701   2.242   4.647   4.889
 4426SOL    HW117702   2.256   4.583   4.818
 4426SOL    HW217703   2.216   4.593   4.963
 4426SOL     MW17704   2.241   4.632   4.889
 4427SOL     OW17705   0.912   5.151   3.778
 4427SOL    HW117706   0.830   5.201   3.780
 4427SOL    HW217707   0.979   5.218   3.767
 4427SOL     MW17708   0.910   5.165   3.777
 4428SOL     OW17709   5.604   5.792   1.900
 4428SOL    HW117710   5.650   5.821   1.979
 4428SOL    HW217711   5.521   5.761   1.931
 4428SOL     MW17712   5.600   5.792   1.913
 4429SOL     OW17713   1.488   6.049   4.303
 4429SOL    HW117714   1.536   5.985   4.356
 4429SOL    HW217715   1.508   6.133   4.344
 4429SOL     MW17716   1.496   6.051   4.314
 4430SOL     OW17717   0.004   3.451   3.897
 4430SOL    HW117718  -0.031   3.409   3.976
 4430SOL    HW217719   0.058   3.384   3.857
 4430SOL     MW17720   0.006   3.438   3.902
 4431SOL     OW17721   4.603   3.704   5.289
 4431SOL    HW117722   4.620   3.796   5.314
 4431SOL    HW217723   4.615   3.703   5.195
 4431SOL     MW17724   4.607   3.715   5.281
 4432SOL     OW17725   1.923   4.546   1.500
 4432SOL    HW117726   1.997   4.597   1.464
 4432SOL    HW217727   1.893   4.495   1.425
 4432SOL     MW17728   1.929   4.546   1.486
 4433SOL     OW17729   3.516   1.767   5.964
 4433SOL    HW117730   3.441   1.783   5.906
 4433SOL    HW217731   3.519   1.844   6.020
 4433SOL     MW17732   3.507   1.778   5.964
 4434SOL     OW17733   5.995   5.798   3.819
 4434SOL    HW117734   5.998   5.880   3.870
 4434SOL    HW217735   6.040   5.735   3.874
 4434SOL     MW17736   6.001   5.801   3.832
 4435SOL     OW17737   4.762   6.093   4.597
 4435SOL    HW117738   4.712   6.024   4.553
 4435SOL    HW217739   4.805   6.048   4.669
 4435SOL     MW17740   4.761   6.079   4.600
 4436SOL     OW17741   4.587   1.137   4.039
 4436SOL    HW117742   4.526   1.211   4.048
 4436SOL    HW217743   4.607   1.134   3.947
 4436SOL     MW17744   4.582   1.146   4.029
 4437SOL     OW17745   1.954   1.382   0.803
 4437SOL    HW117746   1.953   1.294   0.764
 4437SOL    HW217747   1.972   1.366   0.895
 4437SOL     MW17748   1.956   1.369   0.809
 4438SOL     OW17749   0.489   1.837   1.292
 4438SOL    HW117750   0.517   1.920   1.333
 4438SOL    HW217751   0.500   1.853   1.199
 4438SOL     MW17752   0.494   1.849   1.286
 4439SOL     OW17753   5.768   4.463   4.322
 4439SOL    HW117754   5.714   4.446   4.400
 4439SOL    HW217755   5.705   4.478   4.253
 4439SOL     MW17756   5.754   4.463   4.323
 4440SOL     OW17757   4.406   5.113   1.752
 4440SOL    HW117758   4.320   5.155   1.753
 4440SOL    HW217759   4.447   5.145   1.673
 4440SOL     MW17760   4.401   5.122   1.743
 4441SOL     OW17761   4.097   2.813   5.018
 4441SOL    HW117762   4.152   2.882   5.056
 4441SOL    HW217763   4.104   2.741   5.079
 4441SOL     MW17764   4.104   2.813   5.030
 4442SOL     OW17765   4.436   4.186   5.306
 4442SOL    HW117766   4.375   4.117   5.278
 4442SOL    HW217767   4.448   4.170   5.399
 4442SOL     MW17768   4.430   4.175   5.313
 4443SOL     OW17769   2.305   1.483   3.025
 4443SOL    HW117770   2.323   1.464   2.933
 4443SOL    HW217771   2.367   1.552   3.047
 4443SOL     MW17772   2.315   1.489   3.016
 4444SOL     OW17773   2.558   0.412   0.111
 4444SOL    HW117774   2.551   0.317   0.101
 4444SOL    HW217775   2.523   0.429   0.197
 4444SOL     MW17776   2.553   0.402   0.120
 4445SOL     OW17777   3.632   5.688   0.474
 4445SOL    HW117778   3.574   5.662   0.401
 4445SOL    HW217779   3.582   5.752   0.522
 4445SOL     MW17780   3.619   5.692   0.471
 4446SOL     OW17781   4.280   3.162   3.038
 4446SOL    HW117782   4.309   3.226   2.972
 4446SOL    HW217783   4.315   3.196   3.120
 4446SOL     MW17784   4.288   3.174   3.040
 4447SOL     OW17785   2.107   5.596   3.974
 4447SOL    HW117786   2.179   5.566   3.917
 4447SOL    HW217787   2.149   5.656   4.034
 4447SOL     MW17788   2.121   5.599   3.974
 4448SOL     OW17789   3.168   1.707   3.528
 4448SOL    HW117790   3.166   1.634   3.466
 4448SOL    HW217791   3.171   1.666   3.614
 4448SOL     MW17792   3.168   1.693   3.531
 4449SOL     OW17793   3.336   3.610   5.147
 4449SOL    HW117794   3.421   3.570   5.169
 4449SOL    HW217795   3.303   3.642   5.230
 4449SOL     MW17796   3.342   3.609   5.159
 4450SOL     OW17797   3.763   2.549   3.348
 4450SOL    HW117798   3.675   2.537   3.311
 4450SOL    HW217799   3.756   2.519   3.437
 4450SOL     MW17800   3.752   2.544   3.354
 4451SOL     OW17801   0.685   4.217   3.791
 4451SOL    HW117802   0.685   4.205   3.695
 4451SOL    HW217803   0.749   4.286   3.806
 4451SOL     MW17804   0.693   4.224   3.781
 4452SOL     OW17805   6.006   3.687   1.745
 4452SOL    HW117806   5.922   3.724   1.774
 4452SOL    HW217807   6.004   3.694   1.650
 4452SOL     MW17808   5.996   3.692   1.737
 4453SOL     OW17809   0.119   4.178   2.144
 4453SOL    HW117810   0.070   4.164   2.062
 4453SOL    HW217811   0.097   4.267   2.169
 4453SOL     MW17812   0.110   4.187   2.137
 4454SOL     OW17813   4.237   4.614   4.191
 4454SOL    HW117814   4.171   4.642   4.127
 4454SOL    HW217815   4.187   4.577   4.262
 4454SOL     MW17816   4.223   4.613   4.192
 4455SOL     OW17817   2.272   5.696   2.451
 4455SOL    HW117818   2.353   5.680   2.401
 4455SOL    HW217819   2.203   5.661   2.395
 4455SOL     MW17820   2.274   5.690   2.438
 4456SOL     OW17821   1.112   4.206   5.667
 4456SOL    HW117822   1.050   4.162   5.727
 4456SOL    HW217823   1.057   4.258   5.610
 4456SOL     MW17824   1.098   4.206   5.668
 4457SOL     OW17825   3.123   3.805   4.411
 4457SOL    HW117826   3.204   3.809   4.463
 4457SOL    HW217827   3.059   3.851   4.463
 4457SOL     MW17828   3.125   3.811   4.424
 4458SOL     OW17829   2.378   5.823   1.003
 4458SOL    HW117830   2.452   5.878   0.975
 4458SOL    HW217831   2.383   5.824   1.098
 4458SOL     MW17832   2.388   5.830   1.011
 4459SOL     OW17833   4.562   2.550   4.782
 4459SOL    HW117834   4.601   2.638   4.779
 4459SOL    HW217835   4.631   2.495   4.817
 4459SOL     MW17836   4.575   2.555   4.785
 4460SOL     OW17837   2.870   4.274   6.086
 4460SOL    HW117838   2.907   4.205   6.031
 4460SOL    HW217839   2.852   4.345   6.026
 4460SOL     MW17840   2.872   4.274   6.073
 4461SOL     OW17841   4.220   4.013   3.423
 4461SOL    HW117842   4.214   3.967   3.507
 4461SOL    HW217843   4.141   4.066   3.420
 4461SOL     MW17844   4.210   4.014   3.432
 4462SOL     OW17845   0.842   0.893   5.961
 4462SOL    HW117846   0.919   0.943   5.990
 4462SOL    HW217847   0.820   0.838   6.035
 4462SOL     MW17848   0.849   0.892   5.973
 4463SOL     OW17849   5.501   1.981   0.010
 4463SOL    HW117850   5.490   2.048   0.078
 4463SOL    HW217851   5.540   1.908   0.056
 4463SOL     MW17852   5.504   1.980   0.023
 4464SOL     OW17853   6.031   4.664   0.217
 4464SOL    HW117854   6.089   4.729   0.258
 4464SOL    HW217855   6.075   4.641   0.136
 4464SOL     MW17856   6.044   4.669   0.213
 4465SOL     OW17857   3.388   2.696   5.434
 4465SOL    HW117858   3.399   2.669   5.342
 4465SOL    HW217859   3.341   2.624   5.473
 4465SOL     MW17860   3.384   2.684   5.427
 4466SOL     OW17861   2.587   1.003   0.182
 4466SOL    HW117862   2.565   0.909   0.184
 4466SOL    HW217863   2.655   1.010   0.116
 4466SOL     MW17864   2.592   0.992   0.175
 4467SOL     OW17865   4.681   1.035   1.583
 4467SOL    HW117866   4.705   1.077   1.666
 4467SOL    HW217867   4.701   1.100   1.517
 4467SOL     MW17868   4.686   1.048   1.585
 4468SOL     OW17869   1.970   1.607   1.781
 4468SOL    HW117870   1.934   1.529   1.824
 4468SOL    HW217871   2.043   1.574   1.730
 4468SOL     MW17872   1.974   1.593   1.780
 4469SOL     OW17873   2.012   4.441   5.081
 4469SOL    HW117874   1.928   4.395   5.075
 4469SOL    HW217875   2.042   4.423   5.169
 4469SOL     MW17876   2.005   4.433   5.091
 4470SOL     OW17877   3.290   5.579   2.108
 4470SOL    HW117878   3.248   5.665   2.103
 4470SOL    HW217879   3.378   5.598   2.138
 4470SOL     MW17880   3.296   5.592   2.111
 4471SOL     OW17881   1.425   4.694   2.913
 4471SOL    HW117882   1.467   4.617   2.952
 4471SOL    HW217883   1.359   4.658   2.854
 4471SOL     MW17884   1.422   4.680   2.911
 4472SOL     OW17885   2.668   0.563   1.984
 4472SOL    HW117886   2.606   0.629   2.016
 4472SOL    HW217887   2.614   0.501   1.937
 4472SOL     MW17888   2.654   0.563   1.983
 4473SOL     OW17889   4.834   2.511   5.857
 4473SOL    HW117890   4.855   2.434   5.910
 4473SOL    HW217891   4.883   2.499   5.777
 4473SOL     MW17892   4.842   2.500   5.854
 4474SOL     OW17893   2.753   0.652   2.874
 4474SOL    HW117894   2.673   0.644   2.821
 4474SOL    HW217895   2.751   0.576   2.931
 4474SOL     MW17896   2.743   0.642   2.875
 4475SOL     OW17897   4.280   1.174   3.560
 4475SOL    HW117898   4.273   1.083   3.589
 4475SOL    HW217899   4.199   1.191   3.514
 4475SOL     MW17900   4.269   1.165   3.558
 4476SOL     OW17901   1.757   1.761   3.613
 4476SOL    HW117902   1.759   1.855   3.635
 4476SOL    HW217903   1.744   1.717   3.696
 4476SOL     MW17904   1.755   1.768   3.625
 4477SOL     OW17905   2.085   3.378   3.605
 4477SOL    HW117906   2.016   3.328   3.650
 4477SOL    HW217907   2.041   3.458   3.577
 4477SOL     MW17908   2.071   3.382   3.608
 4478SOL     OW17909   5.795   4.149   5.741
 4478SOL    HW117910   5.707   4.185   5.725
 4478SOL    HW217911   5.854   4.219   5.716
 4478SOL     MW17912   5.791   4.162   5.736
 4479SOL     OW17913   3.355   5.067   4.086
 4479SOL    HW117914   3.382   5.040   4.174
 4479SOL    HW217915   3.303   5.145   4.101
 4479SOL     MW17916   3.352   5.073   4.099
 4480SOL     OW17917   5.547   1.423   4.327
 4480SOL    HW117918   5.483   1.483   4.287
 4480SOL    HW217919   5.536   1.438   4.421
 4480SOL     MW17920   5.538   1.432   4.334
 4481SOL     OW17921   1.010   4.231   0.844
 4481SOL    HW117922   0.919   4.214   0.817
 4481SOL    HW217923   1.029   4.318   0.812
 4481SOL     MW17924   1.001   4.239   0.837
 4482SOL     OW17925   1.187   3.504   3.010
 4482SOL    HW117926   1.130   3.578   2.991
 4482SOL    HW217927   1.265   3.520   2.958
 4482SOL     MW17928   1.190   3.515   3.002
 4483SOL     OW17929   0.359   2.295   3.361
 4483SOL    HW117930   0.330   2.214   3.318
 4483SOL    HW217931   0.286   2.319   3.417
 4483SOL     MW17932   0.347   2.288   3.363
 4484SOL     OW17933   3.934   2.939   5.484
 4484SOL    HW117934   3.922   3.024   5.441
 4484SOL    HW217935   3.978   2.959   5.565
 4484SOL     MW17936   3.938   2.951   5.488
 4485SOL     OW17937   4.073   3.547   1.290
 4485SOL    HW117938   4.063   3.459   1.253
 4485SOL    HW217939   4.156   3.544   1.336
 4485SOL     MW17940   4.082   3.536   1.291
 4486SOL     OW17941   2.131   2.350   3.094
 4486SOL    HW117942   2.077   2.423   3.061
 4486SOL    HW217943   2.136   2.290   3.021
 4486SOL     MW17944   2.125   2.352   3.082
 4487SOL     OW17945   2.937   1.630   0.424
 4487SOL    HW117946   2.953   1.684   0.502
 4487SOL    HW217947   2.922   1.543   0.458
 4487SOL     MW17948   2.937   1.627   0.437
 4488SOL     OW17949   1.507   0.362   0.501
 4488SOL    HW117950   1.471   0.342   0.414
 4488SOL    HW217951   1.485   0.453   0.515
 4488SOL     MW17952   1.500   0.371   0.492
 4489SOL     OW17953   2.095   2.984   5.232
 4489SOL    HW117954   2.077   2.997   5.326
 4489SOL    HW217955   2.033   3.041   5.188
 4489SOL     MW17956   2.086   2.992   5.238
 4490SOL     OW17957   0.897   5.616   0.174
 4490SOL    HW117958   0.923   5.527   0.200
 4490SOL    HW217959   0.858   5.653   0.252
 4490SOL     MW17960   0.896   5.610   0.186
 4491SOL     OW17961   3.038   3.988   0.813
 4491SOL    HW117962   2.954   4.035   0.813
 4491SOL    HW217963   3.039   3.941   0.895
 4491SOL     MW17964   3.028   3.988   0.823
 4492SOL     OW17965   0.867   4.156   4.114
 4492SOL    HW117966   0.841   4.236   4.067
 4492SOL    HW217967   0.855   4.178   4.206
 4492SOL     MW17968   0.862   4.169   4.119
 4493SOL     OW17969   4.085   3.279   0.682
 4493SOL    HW117970   4.077   3.370   0.651
 4493SOL    HW217971   4.047   3.281   0.769
 4493SOL     MW17972   4.080   3.291   0.688
 4494SOL     OW17973   4.902   0.536   0.272
 4494SOL    HW117974   4.906   0.491   0.358
 4494SOL    HW217975   4.986   0.517   0.232
 4494SOL     MW17976   4.912   0.528   0.278
 4495SOL     OW17977   0.738   3.557   0.592
 4495SOL    HW117978   0.807   3.572   0.526
 4495SOL    HW217979   0.774   3.594   0.671
 4495SOL     MW17980   0.751   3.563   0.593
 4496SOL     OW17981   4.910   2.781   4.011
 4496SOL    HW117982   4.847   2.727   3.961
 4496SOL    HW217983   4.897   2.755   4.101
 4496SOL     MW17984   4.901   2.771   4.015
 4497SOL     OW17985   0.671   3.417   5.470
 4497SOL    HW117986   0.658   3.466   5.388
 4497SOL    HW217987   0.695   3.330   5.442
 4497SOL     MW17988   0.672   3.413   5.457
 4498SOL     OW17989   4.234   5.340   1.639
 4498SOL    HW117990   4.157   5.397   1.651
 4498SOL    HW217991   4.278   5.343   1.723
 4498SOL     MW17992   4.230   5.347   1.651
 4499SOL     OW17993   2.701   0.803   4.105
 4499SOL    HW117994   2.621   0.750   4.103
 4499SOL    HW217995   2.697   0.847   4.189
 4499SOL     MW17996   2.691   0.802   4.115
 4500SOL     OW17997   3.961   2.416   0.380
 4500SOL    HW117998   3.868   2.439   0.366
 4500SOL    HW217999   3.982   2.459   0.462
 4500SOL     MW18000   3.952   2.424   0.388
 4501SOL     OW18001   1.980   5.579   1.124
 4501SOL    HW118002   1.988   5.500   1.178
 4501SOL    HW218003   1.887   5.589   1.110
 4501SOL     MW18004   1.970   5.571   1.129
 4502SOL     OW18005   0.412   5.065   0.434
 4502SOL    HW118006   0.399   5.158   0.412
 4502SOL    HW218007   0.343   5.046   0.496
 4502SOL     MW18008   0.402   5.074   0.439
 4503SOL     OW18009   0.809   2.847   5.315
 4503SOL    HW118010   0.768   2.919   5.266
 4503SOL    HW218011   0.870   2.891   5.373
 4503SOL     MW18012   0.811   2.861   5.316
 4504SOL     OW18013   2.251   3.065   5.253
 4504SOL    HW118014   2.244   3.153   5.215
 4504SOL    HW218015   2.222   3.076   5.343
 4504SOL     MW18016   2.246   3.077   5.259
 4505SOL     OW18017   3.392   0.246   5.104
 4505SOL    HW118018   3.349   0.324   5.140
 4505SOL    HW218019   3.387   0.259   5.010
 4505SOL     MW18020   3.386   0.257   5.097
 4506SOL     OW18021   0.971   5.212   0.777
 4506SOL    HW118022   1.055   5.246   0.743
 4506SOL    HW218023   0.958   5.260   0.857
 4506SOL     MW18024   0.980   5.222   0.782
 4507SOL     OW18025   1.227   4.270   0.423
 4507SOL    HW118026   1.275   4.258   0.505
 4507SOL    HW218027   1.294   4.270   0.356
 4507SOL     MW18028   1.241   4.268   0.425
 4508SOL     OW18029   5.040   4.000   3.132
 4508SOL    HW118030   5.059   3.908   3.112
 4508SOL    HW218031   5.116   4.047   3.100
 4508SOL     MW18032   5.051   3.994   3.126
 4509SOL     OW18033   1.681   2.381   5.668
 4509SOL    HW118034   1.750   2.326   5.628
 4509SOL    HW218035   1.643   2.326   5.735
 4509SOL     MW18036   1.685   2.368   5.671
 4510SOL     OW18037   5.758   1.854   5.500
 4510SOL    HW118038   5.720   1.942   5.502
 4510SOL    HW218039   5.820   1.854   5.571
 4510SOL     MW18040   5.761   1.865   5.508
 4511SOL     OW18041   5.317   2.718   1.658
 4511SOL    HW118042   5.376   2.708   1.733
 4511SOL    HW218043   5.372   2.702   1.582
 4511SOL     MW18044   5.331   2.715   1.658
 4512SOL     OW18045   2.507   5.484   1.812
 4512SOL    HW118046   2.555   5.431   1.748
 4512SOL    HW218047   2.568   5.554   1.834
 4512SOL     MW18048   2.520   5.486   1.807
 4513SOL     OW18049   5.144   0.880   2.997
 4513SOL    HW118050   5.173   0.971   3.008
 4513SOL    HW218051   5.189   0.849   2.920
 4513SOL     MW18052   5.153   0.887   2.990
 4514SOL     OW18053   0.352   1.641   1.612
 4514SOL    HW118054   0.306   1.599   1.686
 4514SOL    HW218055   0.429   1.680   1.652
 4514SOL     MW18056   0.356   1.640   1.626
 4515SOL     OW18057   5.313   5.932   1.435
 4515SOL    HW118058   5.317   6.027   1.445
 4515SOL    HW218059   5.320   5.899   1.524
 4515SOL     MW18060   5.315   5.939   1.447
 4516SOL     OW18061   0.651   4.662   3.790
 4516SOL    HW118062   0.621   4.601   3.721
 4516SOL    HW218063   0.712   4.719   3.745
 4516SOL     MW18064   0.655   4.662   3.776
 4517SOL     OW18065   1.101   1.362   1.215
 4517SOL    HW118066   1.076   1.448   1.249
 4517SOL    HW218067   1.067   1.361   1.126
 4517SOL     MW18068   1.094   1.372   1.209
 4518SOL     OW18069   3.879   1.900   2.440
 4518SOL    HW118070   3.817   1.884   2.512
 4518SOL    HW218071   3.964   1.904   2.484
 4518SOL     MW18072   3.882   1.898   2.454
 4519SOL     OW18073   0.642   4.815   4.160
 4519SOL    HW118074   0.638   4.906   4.192
 4519SOL    HW218075   0.722   4.780   4.197
 4519SOL     MW18076   0.651   4.822   4.169
 4520SOL     OW18077   2.231   2.339   6.014
 4520SOL    HW118078   2.294   2.288   6.066
 4520SOL    HW218079   2.166   2.367   6.078
 4520SOL     MW18080   2.231   2.336   6.028
 4521SOL     OW18081   0.106   5.399   4.037
 4521SOL    HW118082   0.189   5.376   4.081
 4521SOL    HW218083   0.125   5.387   3.945
 4521SOL     MW18084   0.119   5.394   4.031
 4522SOL     OW18085   0.500   2.921   0.761
 4522SOL    HW118086   0.530   2.838   0.801
 4522SOL    HW218087   0.486   2.899   0.670
 4522SOL     MW18088   0.502   2.908   0.755
 4523SOL     OW18089   2.973  -0.010   0.951
 4523SOL    HW118090   2.971   0.086   0.952
 4523SOL    HW218091   2.905  -0.036   1.012
 4523SOL     MW18092   2.964  -0.002   0.958
 4524SOL     OW18093   1.020   2.153   3.100
 4524SOL    HW118094   1.053   2.237   3.134
 4524SOL    HW218095   1.017   2.165   3.006
 4524SOL     MW18096   1.023   2.165   3.093
 4525SOL     OW18097   5.951   4.219   4.206
 4525SOL    HW118098   6.033   4.235   4.254
 4525SOL    HW218099   5.980   4.192   4.120
 4525SOL     MW18100   5.965   4.218   4.202
 4526SOL     OW18101   2.090   5.262   1.817
 4526SOL    HW118102   2.176   5.267   1.860
 4526SOL    HW218103   2.106   5.289   1.728
 4526SOL     MW18104   2.102   5.266   1.812
 4527SOL     OW18105   1.096   0.387   4.923
 4527SOL    HW118106   1.179   0.388   4.971
 4527SOL    HW218107   1.105   0.315   4.862
 4527SOL     MW18108   1.107   0.378   4.922
 4528SOL     OW18109   3.762   2.021   1.349
 4528SOL    HW118110   3.718   2.037   1.265
 4528SOL    HW218111   3.717   2.078   1.410
 4528SOL     MW18112   3.751   2.029   1.346
 4529SOL     OW18113   5.231   4.936   5.099
 4529SOL    HW118114   5.276   4.933   5.014
 4529SOL    HW218115   5.263   4.859   5.145
 4529SOL     MW18116   5.241   4.926   5.094
 4530SOL     OW18117   4.455   4.981   5.226
 4530SOL    HW118118   4.530   4.962   5.283
 4530SOL    HW218119   4.494   4.996   5.141
 4530SOL     MW18120   4.469   4.980   5.223
 4531SOL     OW18121   5.561   5.036   0.225
 4531SOL    HW118122   5.579   4.960   0.281
 4531SOL    HW218123   5.491   5.082   0.269
 4531SOL     MW18124   5.555   5.033   0.237
 4532SOL     OW18125   2.989   6.080   1.588
 4532SOL    HW118126   3.021   6.041   1.670
 4532SOL    HW218127   3.028   6.026   1.520
 4532SOL     MW18128   2.998   6.069   1.590
 4533SOL     OW18129   3.768   1.005   4.543
 4533SOL    HW118130   3.851   1.017   4.591
 4533SOL    HW218131   3.794   0.971   4.459
 4533SOL     MW18132   3.781   1.003   4.539
 4534SOL     OW18133   0.547   3.906   5.179
 4534SOL    HW118134   0.625   3.878   5.130
 4534SOL    HW218135   0.575   3.903   5.270
 4534SOL     MW18136   0.560   3.902   5.184
 4535SOL     OW18137   0.677   4.897   3.701
 4535SOL    HW118138   0.769   4.910   3.726
 4535SOL    HW218139   0.665   4.955   3.627
 4535SOL     MW18140   0.687   4.906   3.695
 4536SOL     OW18141   2.242   4.005   5.080
 4536SOL    HW118142   2.182   3.933   5.060
 4536SOL    HW218143   2.260   3.995   5.173
 4536SOL     MW18144   2.237   3.995   5.089
 4537SOL     OW18145   0.823   2.522   5.000
 4537SOL    HW118146   0.769   2.601   5.010
 4537SOL    HW218147   0.900   2.553   4.953
 4537SOL     MW18148   0.825   2.536   4.995
 4538SOL     OW18149   0.564   1.688   3.835
 4538SOL    HW118150   0.651   1.674   3.874
 4538SOL    HW218151   0.566   1.639   3.754
 4538SOL     MW18152   0.575   1.681   3.830
 4539SOL     OW18153   3.312   4.161   2.475
 4539SOL    HW118154   3.244   4.195   2.417
 4539SOL    HW218155   3.281   4.180   2.562
 4539SOL     MW18156   3.300   4.167   2.478
 4540SOL     OW18157   3.071   3.853   1.824
 4540SOL    HW118158   3.166   3.866   1.810
 4540SOL    HW218159   3.030   3.922   1.773
 4540SOL     MW18160   3.078   3.863   1.816
 4541SOL     OW18161   4.896   5.722   0.231
 4541SOL    HW118162   4.874   5.797   0.287
 4541SOL    HW218163   4.894   5.756   0.143
 4541SOL     MW18164   4.893   5.735   0.228
 4542SOL     OW18165   1.231   1.499   6.023
 4542SOL    HW118166   1.188   1.535   5.945
 4542SOL    HW218167   1.313   1.546   6.029
 4542SOL     MW18168   1.235   1.509   6.014
 4543SOL     OW18169   3.950   3.905   3.955
 4543SOL    HW118170   3.917   3.881   3.868
 4543SOL    HW218171   3.954   3.823   4.002
 4543SOL     MW18172   3.946   3.892   3.949
 4544SOL     OW18173   0.846   1.245   0.528
 4544SOL    HW118174   0.768   1.279   0.482
 4544SOL    HW218175   0.821   1.245   0.619
 4544SOL     MW18176   0.834   1.249   0.533
 4545SOL     OW18177   3.583   2.755   3.586
 4545SOL    HW118178   3.537   2.673   3.607
 4545SOL    HW218179   3.514   2.813   3.557
 4545SOL     MW18180   3.569   2.752   3.585
 4546SOL     OW18181   1.645   1.515   5.238
 4546SOL    HW118182   1.634   1.441   5.177
 4546SOL    HW218183   1.687   1.476   5.314
 4546SOL     MW18184   1.649   1.501   5.239
 4547SOL     OW18185   5.153   3.355   0.053
 4547SOL    HW118186   5.064   3.322   0.034
 4547SOL    HW218187   5.154   3.362   0.148
 4547SOL     MW18188   5.142   3.351   0.062
 4548SOL     OW18189   3.130   1.273   3.876
 4548SOL    HW118190   3.164   1.338   3.812
 4548SOL    HW218191   3.207   1.244   3.922
 4548SOL     MW18192   3.143   1.278   3.873
 4549SOL     OW18193   1.084   5.217   5.978
 4549SOL    HW118194   0.990   5.227   5.959
 4549SOL    HW218195   1.104   5.292   6.033
 4549SOL     MW18196   1.075   5.227   5.982
 4550SOL     OW18197   3.666   1.588   3.616
 4550SOL    HW118198   3.649   1.673   3.574
 4550SOL    HW218199   3.661   1.607   3.709
 4550SOL     MW18200   3.663   1.601   3.622
 4551SOL     OW18201   3.380   0.475   4.186
 4551SOL    HW118202   3.461   0.430   4.212
 4551SOL    HW218203   3.382   0.471   4.091
 4551SOL     MW18204   3.390   0.469   4.178
 4552SOL     OW18205   1.631   6.022   4.916
 4552SOL    HW118206   1.581   6.064   4.845
 4552SOL    HW218207   1.569   6.017   4.987
 4552SOL     MW18208   1.617   6.027   4.915
 4553SOL     OW18209   1.216   0.777   3.467
 4553SOL    HW118210   1.178   0.849   3.416
 4553SOL    HW218211   1.163   0.774   3.546
 4553SOL     MW18212   1.205   0.785   3.470
 4554SOL     OW18213   1.179   5.808   0.410
 4554SOL    HW118214   1.116   5.770   0.471
 4554SOL    HW218215   1.162   5.764   0.327
 4554SOL     MW18216   1.169   5.798   0.407
 4555SOL     OW18217   5.509   0.050   3.320
 4555SOL    HW118218   5.443   0.116   3.297
 4555SOL    HW218219   5.591   0.097   3.316
 4555SOL     MW18220   5.511   0.064   3.317
 4556SOL     OW18221   4.620   4.225   2.729
 4556SOL    HW118222   4.688   4.206   2.794
 4556SOL    HW218223   4.662   4.210   2.645
 4556SOL     MW18224   4.633   4.221   2.727
 4557SOL     OW18225   4.469   3.464   1.989
 4557SOL    HW118226   4.551   3.494   2.027
 4557SOL    HW218227   4.414   3.541   1.986
 4557SOL     MW18228   4.472   3.476   1.993
 4558SOL     OW18229   4.698   5.450   3.050
 4558SOL    HW118230   4.714   5.366   3.007
 4558SOL    HW218231   4.670   5.427   3.138
 4558SOL     MW18232   4.697   5.437   3.055
 4559SOL     OW18233   3.401   1.290   5.074
 4559SOL    HW118234   3.470   1.337   5.027
 4559SOL    HW218235   3.327   1.349   5.073
 4559SOL     MW18236   3.400   1.302   5.068
 4560SOL     OW18237   4.636   5.212   4.634
 4560SOL    HW118238   4.701   5.158   4.587
 4560SOL    HW218239   4.684   5.246   4.709
 4560SOL     MW18240   4.650   5.210   4.637
 4561SOL     OW18241   2.619   4.060   3.625
 4561SOL    HW118242   2.597   4.093   3.712
 4561SOL    HW218243   2.541   4.074   3.573
 4561SOL     MW18244   2.607   4.066   3.630
 4562SOL     OW18245   3.265   4.317   1.024
 4562SOL    HW118246   3.352   4.348   0.996
 4562SOL    HW218247   3.211   4.324   0.946
 4562SOL     MW18248   3.269   4.322   1.011
 4563SOL     OW18249   0.069   3.707   5.409
 4563SOL    HW118250   0.150   3.669   5.374
 4563SOL    HW218251   0.056   3.660   5.491
 4563SOL     MW18252   0.078   3.697   5.415
 4564SOL     OW18253   0.775   1.207   2.188
 4564SOL    HW118254   0.794   1.248   2.273
 4564SOL    HW218255   0.695   1.249   2.160
 4564SOL     MW18256   0.768   1.217   2.195
 4565SOL     OW18257   2.933   1.707   3.063
 4565SOL    HW118258   2.938   1.612   3.044
 4565SOL    HW218259   2.841   1.722   3.078
 4565SOL     MW18260   2.923   1.697   3.062
 4566SOL     OW18261   1.559   4.404   1.923
 4566SOL    HW118262   1.516   4.320   1.903
 4566SOL    HW218263   1.512   4.438   1.998
 4566SOL     MW18264   1.548   4.398   1.929
 4567SOL     OW18265   5.493   2.593   1.026
 4567SOL    HW118266   5.480   2.681   1.061
 4567SOL    HW218267   5.577   2.566   1.059
 4567SOL     MW18268   5.501   2.600   1.034
 4568SOL     OW18269   4.221   0.475   1.738
 4568SOL    HW118270   4.283   0.439   1.673
 4568SOL    HW218271   4.225   0.569   1.723
 4568SOL     MW18272   4.229   0.482   1.728
 4569SOL     OW18273   5.863   1.438   0.345
 4569SOL    HW118274   5.809   1.492   0.403
 4569SOL    HW218275   5.824   1.450   0.259
 4569SOL     MW18276   5.852   1.446   0.342
 4570SOL     OW18277   4.335   1.701   4.424
 4570SOL    HW118278   4.427   1.682   4.403
 4570SOL    HW218279   4.297   1.616   4.442
 4570SOL     MW18280   4.342   1.689   4.424
 4571SOL     OW18281   2.979   1.708   2.671
 4571SOL    HW118282   2.903   1.678   2.620
 4571SOL    HW218283   3.051   1.656   2.638
 4571SOL     MW18284   2.978   1.698   2.660
 4572SOL     OW18285   3.407   2.581   5.812
 4572SOL    HW118286   3.464   2.635   5.867
 4572SOL    HW218287   3.432   2.602   5.723
 4572SOL     MW18288   3.417   2.590   5.808
 4573SOL     OW18289   2.249   0.022   2.417
 4573SOL    HW118290   2.333   0.060   2.444
 4573SOL    HW218291   2.191   0.035   2.491
 4573SOL     MW18292   2.253   0.028   2.429
 4574SOL     OW18293   2.774   3.874   1.826
 4574SOL    HW118294   2.805   3.833   1.908
 4574SOL    HW218295   2.704   3.818   1.797
 4574SOL     MW18296   2.770   3.863   1.833
 4575SOL     OW18297   5.793   0.504   5.466
 4575SOL    HW118298   5.840   0.510   5.549
 4575SOL    HW218299   5.772   0.412   5.458
 4575SOL     MW18300   5.796   0.494   5.475
 4576SOL     OW18301   5.616   2.360   0.950
 4576SOL    HW118302   5.700   2.393   0.916
 4576SOL    HW218303   5.613   2.270   0.921
 4576SOL     MW18304   5.626   2.353   0.943
 4577SOL     OW18305   3.930   1.718   5.135
 4577SOL    HW118306   3.864   1.758   5.192
 4577SOL    HW218307   3.905   1.746   5.048
 4577SOL     MW18308   3.919   1.726   5.132
 4578SOL     OW18309   2.050   4.606   3.128
 4578SOL    HW118310   1.963   4.609   3.170
 4578SOL    HW218311   2.032   4.615   3.035
 4578SOL     MW18312   2.037   4.608   3.122
 4579SOL     OW18313   0.958   2.370   2.662
 4579SOL    HW118314   0.909   2.413   2.591
 4579SOL    HW218315   0.937   2.422   2.739
 4579SOL     MW18316   0.949   2.382   2.663
 4580SOL     OW18317   5.045   4.450   0.430
 4580SOL    HW118318   5.118   4.501   0.393
 4580SOL    HW218319   5.052   4.464   0.524
 4580SOL     MW18320   5.055   4.458   0.437
 4581SOL     OW18321   1.258   2.872   0.811
 4581SOL    HW118322   1.285   2.785   0.781
 4581SOL    HW218323   1.265   2.926   0.733
 4581SOL     MW18324   1.262   2.868   0.798
 4582SOL     OW18325   2.751   1.883   5.666
 4582SOL    HW118326   2.657   1.899   5.648
 4582SOL    HW218327   2.753   1.796   5.704
 4582SOL     MW18328   2.740   1.875   5.668
 4583SOL     OW18329   0.400   4.786   5.443
 4583SOL    HW118330   0.464   4.858   5.437
 4583SOL    HW218331   0.450   4.714   5.479
 4583SOL     MW18332   0.414   4.786   5.446
 4584SOL     OW18333   1.942   4.084   3.118
 4584SOL    HW118334   1.891   4.165   3.133
 4584SOL    HW218335   1.991   4.074   3.199
 4584SOL     MW18336   1.941   4.093   3.130
 4585SOL     OW18337   2.613   5.589   3.620
 4585SOL    HW118338   2.591   5.525   3.551
 4585SOL    HW218339   2.612   5.538   3.700
 4585SOL     MW18340   2.611   5.575   3.621
 4586SOL     OW18341   5.322   5.629   0.589
 4586SOL    HW118342   5.351   5.580   0.511
 4586SOL    HW218343   5.367   5.587   0.661
 4586SOL     MW18344   5.331   5.618   0.588
 4587SOL     OW18345   2.573   3.136   1.779
 4587SOL    HW118346   2.567   3.162   1.872
 4587SOL    HW218347   2.665   3.143   1.759
 4587SOL     MW18348   2.583   3.140   1.788
 4588SOL     OW18349   1.299   2.985   1.098
 4588SOL    HW118350   1.386   3.008   1.132
 4588SOL    HW218351   1.311   2.983   1.003
 4588SOL     MW18352   1.311   2.987   1.091
 4589SOL     OW18353   4.908   2.812   5.813
 4589SOL    HW118354   4.829   2.860   5.788
 4589SOL    HW218355   4.918   2.745   5.746
 4589SOL     MW18356   4.899   2.810   5.802
 4590SOL     OW18357   1.508   1.230   1.291
 4590SOL    HW118358   1.485   1.141   1.265
 4590SOL    HW218359   1.474   1.285   1.221
 4590SOL     MW18360   1.501   1.226   1.280
 4591SOL     OW18361   1.853   2.253   1.090
 4591SOL    HW118362   1.813   2.307   1.160
 4591SOL    HW218363   1.823   2.165   1.109
 4591SOL     MW18364   1.844   2.250   1.101
 4592SOL     OW18365   5.285   1.964   2.198
 4592SOL    HW118366   5.304   2.056   2.177
 4592SOL    HW218367   5.337   1.915   2.136
 4592SOL     MW18368   5.293   1.970   2.188
 4593SOL     OW18369   4.681   4.496   5.696
 4593SOL    HW118370   4.614   4.442   5.653
 4593SOL    HW218371   4.755   4.437   5.706
 4593SOL     MW18372   4.682   4.482   5.692
 4594SOL     OW18373   5.393   0.731   1.552
 4594SOL    HW118374   5.365   0.649   1.511
 4594SOL    HW218375   5.396   0.710   1.645
 4594SOL     MW18376   5.390   0.718   1.558
 4595SOL     OW18377   5.896   0.272   4.727
 4595SOL    HW118378   5.835   0.279   4.653
 4595SOL    HW218379   5.922   0.180   4.726
 4595SOL     MW18380   5.892   0.262   4.718
 4596SOL     OW18381   3.447   2.380   1.027
 4596SOL    HW118382   3.540   2.360   1.012
 4596SOL    HW218383   3.442   2.395   1.121
 4596SOL     MW18384   3.458   2.379   1.037
 4597SOL     OW18385   3.460   3.320   0.554
 4597SOL    HW118386   3.501   3.264   0.487
 4597SOL    HW218387   3.435   3.398   0.506
 4597SOL     MW18388   3.462   3.322   0.540
 4598SOL     OW18389   2.675   4.995   0.426
 4598SOL    HW118390   2.591   5.002   0.472
 4598SOL    HW218391   2.650   4.982   0.335
 4598SOL     MW18392   2.661   4.994   0.421
 4599SOL     OW18393   5.677   0.157   5.335
 4599SOL    HW118394   5.645   0.142   5.246
 4599SOL    HW218395   5.668   0.251   5.347
 4599SOL     MW18396   5.672   0.166   5.325
 4600SOL     OW18397   1.723   4.037   1.278
 4600SOL    HW118398   1.733   4.111   1.339
 4600SOL    HW218399   1.633   4.009   1.290
 4600SOL     MW18400   1.713   4.043   1.287
 4601SOL     OW18401   4.141   2.954   3.380
 4601SOL    HW118402   4.235   2.965   3.397
 4601SOL    HW218403   4.123   2.866   3.409
 4601SOL     MW18404   4.151   2.945   3.386
 4602SOL     OW18405   3.343   0.843   2.037
 4602SOL    HW118406   3.384   0.904   2.100
 4602SOL    HW218407   3.415   0.815   1.981
 4602SOL     MW18408   3.357   0.847   2.038
 4603SOL     OW18409   4.267   0.292   5.259
 4603SOL    HW118410   4.188   0.329   5.217
 4603SOL    HW218411   4.339   0.331   5.210
 4603SOL     MW18412   4.266   0.301   5.248
 4604SOL     OW18413   4.228   1.203   1.715
 4604SOL    HW118414   4.224   1.115   1.755
 4604SOL    HW218415   4.221   1.187   1.622
 4604SOL     MW18416   4.227   1.191   1.709
 4605SOL     OW18417   0.580   5.974   1.091
 4605SOL    HW118418   0.597   5.968   0.996
 4605SOL    HW218419   0.596   6.066   1.111
 4605SOL     MW18420   0.584   5.984   1.081
 4606SOL     OW18421   3.276   3.119   3.976
 4606SOL    HW118422   3.259   3.208   3.945
 4606SOL    HW218423   3.345   3.087   3.919
 4606SOL     MW18424   3.282   3.126   3.966
 4607SOL     OW18425   0.086   0.593   1.833
 4607SOL    HW118426   0.005   0.579   1.884
 4607SOL    HW218427   0.067   0.555   1.748
 4607SOL     MW18428   0.074   0.587   1.829
 4608SOL     OW18429   2.602   0.809   3.609
 4608SOL    HW118430   2.665   0.847   3.671
 4608SOL    HW218431   2.648   0.810   3.526
 4608SOL     MW18432   2.615   0.814   3.607
 4609SOL     OW18433   2.354   5.179   4.545
 4609SOL    HW118434   2.385   5.268   4.564
 4609SOL    HW218435   2.285   5.191   4.482
 4609SOL     MW18436   2.350   5.191   4.540
 4610SOL     OW18437   4.908   2.709   2.947
 4610SOL    HW118438   4.939   2.786   2.898
 4610SOL    HW218439   4.859   2.660   2.882
 4610SOL     MW18440   4.906   2.713   2.933
 4611SOL     OW18441   6.029   3.714   3.013
 4611SOL    HW118442   6.097   3.746   2.953
 4611SOL    HW218443   5.963   3.782   3.011
 4611SOL     MW18444   6.029   3.726   3.005
 4612SOL     OW18445   2.524   2.617   0.546
 4612SOL    HW118446   2.525   2.528   0.584
 4612SOL    HW218447   2.512   2.603   0.453
 4612SOL     MW18448   2.523   2.604   0.540
 4613SOL     OW18449   0.612   2.021   0.958
 4613SOL    HW118450   0.676   2.039   1.028
 4613SOL    HW218451   0.662   2.031   0.878
 4613SOL     MW18452   0.626   2.024   0.957
 4614SOL     OW18453   5.290   5.721   1.692
 4614SOL    HW118454   5.290   5.710   1.788
 4614SOL    HW218455   5.342   5.649   1.660
 4614SOL     MW18456   5.296   5.711   1.700
 4615SOL     OW18457   5.671   2.675   0.598
 4615SOL    HW118458   5.701   2.764   0.577
 4615SOL    HW218459   5.694   2.624   0.521
 4615SOL     MW18460   5.678   2.680   0.586
 4616SOL     OW18461   0.549   1.348   0.268
 4616SOL    HW118462   0.506   1.342   0.354
 4616SOL    HW218463   0.639   1.321   0.285
 4616SOL     MW18464   0.554   1.344   0.281
 4617SOL     OW18465   1.096   4.065   3.074
 4617SOL    HW118466   1.174   4.010   3.064
 4617SOL    HW218467   1.062   4.044   3.160
 4617SOL     MW18468   1.101   4.056   3.083
 4618SOL     OW18469   3.700   0.940   5.982
 4618SOL    HW118470   3.693   0.863   6.039
 4618SOL    HW218471   3.741   0.908   5.903
 4618SOL     MW18472   3.704   0.927   5.980
 4619SOL     OW18473   4.221   1.777   6.044
 4619SOL    HW118474   4.184   1.693   6.071
 4619SOL    HW218475   4.190   1.838   6.110
 4619SOL     MW18476   4.213   1.774   6.055
 4620SOL     OW18477   3.727   6.009   5.227
 4620SOL    HW118478   3.794   6.034   5.162
 4620SOL    HW218479   3.761   6.042   5.309
 4620SOL     MW18480   3.739   6.016   5.228
 4621SOL     OW18481   4.099   1.191   2.100
 4621SOL    HW118482   4.066   1.269   2.055
 4621SOL    HW218483   4.085   1.209   2.192
 4621SOL     MW18484   4.093   1.203   2.105
 4622SOL     OW18485   4.134   1.015   2.386
 4622SOL    HW118486   4.159   0.944   2.326
 4622SOL    HW218487   4.200   1.014   2.453
 4622SOL     MW18488   4.145   1.006   2.386
 4623SOL     OW18489   1.988   2.667   3.723
 4623SOL    HW118490   1.969   2.695   3.813
 4623SOL    HW218491   2.036   2.740   3.686
 4623SOL     MW18492   1.991   2.679   3.730
 4624SOL     OW18493   5.686   1.284   4.342
 4624SOL    HW118494   5.778   1.309   4.330
 4624SOL    HW218495   5.674   1.286   4.436
 4624SOL     MW18496   5.696   1.288   4.352
 4625SOL     OW18497   0.213   0.986   3.153
 4625SOL    HW118498   0.275   1.000   3.081
 4625SOL    HW218499   0.266   0.955   3.225
 4625SOL     MW18500   0.227   0.984   3.152
 4626SOL     OW18501   2.607   3.682   0.702
 4626SOL    HW118502   2.621   3.725   0.787
 4626SOL    HW218503   2.611   3.753   0.639
 4626SOL     MW18504   2.610   3.696   0.705
 4627SOL     OW18505   4.578   2.427   0.515
 4627SOL    HW118506   4.670   2.416   0.489
 4627SOL    HW218507   4.533   2.446   0.434
 4627SOL     MW18508   4.584   2.427   0.502
 4628SOL     OW18509   1.408   1.743   4.211
 4628SOL    HW118510   1.373   1.832   4.209
 4628SOL    HW218511   1.441   1.729   4.123
 4628SOL     MW18512   1.408   1.752   4.200
 4629SOL     OW18513   5.320   3.351   4.843
 4629SOL    HW118514   5.409   3.348   4.881
 4629SOL    HW218515   5.263   3.337   4.917
 4629SOL     MW18516   5.324   3.349   4.856
 4630SOL     OW18517   3.683   2.278   0.496
 4630SOL    HW118518   3.595   2.272   0.456
 4630SOL    HW218519   3.714   2.364   0.471
 4630SOL     MW18520   3.676   2.287   0.488
 4631SOL     OW18521   1.363   3.677   6.001
 4631SOL    HW118522   1.426   3.748   5.987
 4631SOL    HW218523   1.379   3.648   6.090
 4631SOL     MW18524   1.373   3.682   6.009
 4632SOL     OW18525   4.232   5.737   0.666
 4632SOL    HW118526   4.322   5.743   0.698
 4632SOL    HW218527   4.181   5.722   0.745
 4632SOL     MW18528   4.237   5.736   0.679
 4633SOL     OW18529   2.808   1.975   3.914
 4633SOL    HW118530   2.795   1.887   3.877
 4633SOL    HW218531   2.728   1.991   3.963
 4633SOL     MW18532   2.797   1.966   3.915
 4634SOL     OW18533   2.414   1.218   1.791
 4634SOL    HW118534   2.485   1.242   1.729
 4634SOL    HW218535   2.443   1.135   1.827
 4634SOL     MW18536   2.426   1.211   1.787
 4635SOL     OW18537   0.944   5.375   5.322
 4635SOL    HW118538   0.862   5.361   5.370
 4635SOL    HW218539   1.008   5.320   5.367
 4635SOL     MW18540   0.942   5.367   5.333
 4636SOL     OW18541   3.928   5.301   1.633
 4636SOL    HW118542   3.839   5.270   1.611
 4636SOL    HW218543   3.934   5.289   1.727
 4636SOL     MW18544   3.918   5.296   1.641
 4637SOL     OW18545   1.655   2.482   4.209
 4637SOL    HW118546   1.694   2.448   4.128
 4637SOL    HW218547   1.577   2.528   4.181
 4637SOL     MW18548   1.651   2.483   4.196
 4638SOL     OW18549   4.317   1.155   3.097
 4638SOL    HW118550   4.316   1.218   3.025
 4638SOL    HW218551   4.229   1.159   3.134
 4638SOL     MW18552   4.306   1.163   3.093
 4639SOL     OW18553   4.471   4.314   2.147
 4639SOL    HW118554   4.420   4.396   2.156
 4639SOL    HW218555   4.474   4.299   2.054
 4639SOL     MW18556   4.465   4.323   2.137
 4640SOL     OW18557   5.549   5.966   0.727
 4640SOL    HW118558   5.559   5.876   0.692
 4640SOL    HW218559   5.564   5.957   0.820
 4640SOL     MW18560   5.552   5.954   0.733
 4641SOL     OW18561   1.797   1.660   2.505
 4641SOL    HW118562   1.831   1.616   2.584
 4641SOL    HW218563   1.869   1.657   2.443
 4641SOL     MW18564   1.809   1.654   2.507
 4642SOL     OW18565   5.226   1.402   1.410
 4642SOL    HW118566   5.265   1.448   1.485
 4642SOL    HW218567   5.136   1.432   1.408
 4642SOL     MW18568   5.220   1.411   1.419
 4643SOL     OW18569   3.389   3.807   2.599
 4643SOL    HW118570   3.302   3.847   2.603
 4643SOL    HW218571   3.425   3.822   2.685
 4643SOL     MW18572   3.383   3.813   2.610
 4644SOL     OW18573   3.828   2.298   5.988
 4644SOL    HW118574   3.867   2.210   5.997
 4644SOL    HW218575   3.900   2.352   5.957
 4644SOL     MW18576   3.842   2.294   5.985
 4645SOL     OW18577   0.362   3.018   0.493
 4645SOL    HW118578   0.428   3.067   0.443
 4645SOL    HW218579   0.358   3.062   0.576
 4645SOL     MW18580   0.370   3.029   0.496
 4646SOL     OW18581   4.761   2.444   4.440
 4646SOL    HW118582   4.812   2.399   4.509
 4646SOL    HW218583   4.781   2.395   4.361
 4646SOL     MW18584   4.770   2.432   4.439
 4647SOL     OW18585   1.673   2.277   0.630
 4647SOL    HW118586   1.681   2.367   0.596
 4647SOL    HW218587   1.662   2.289   0.724
 4647SOL     MW18588   1.672   2.290   0.637
 4648SOL     OW18589   2.193   4.254   2.120
 4648SOL    HW118590   2.175   4.161   2.100
 4648SOL    HW218591   2.116   4.299   2.089
 4648SOL     MW18592   2.181   4.248   2.114
 4649SOL     OW18593   4.056   2.435   2.731
 4649SOL    HW118594   4.136   2.391   2.763
 4649SOL    HW218595   4.050   2.513   2.785
 4649SOL     MW18596   4.065   2.439   2.742
 4650SOL     OW18597   1.951   1.010   5.443
 4650SOL    HW118598   1.878   1.055   5.486
 4650SOL    HW218599   1.932   1.019   5.350
 4650SOL     MW18600   1.940   1.016   5.437
 4651SOL     OW18601   1.426   1.841   4.432
 4651SOL    HW118602   1.390   1.780   4.367
 4651SOL    HW218603   1.447   1.919   4.381
 4651SOL     MW18604   1.424   1.842   4.418
 4652SOL     OW18605   0.714   2.722   1.393
 4652SOL    HW118606   0.692   2.638   1.435
 4652SOL    HW218607   0.696   2.706   1.301
 4652SOL     MW18608   0.709   2.710   1.387
 4653SOL     OW18609   3.906   3.289   0.520
 4653SOL    HW118610   3.856   3.208   0.514
 4653SOL    HW218611   3.909   3.309   0.613
 4653SOL     MW18612   3.900   3.281   0.530
 4654SOL     OW18613   0.466   3.016   2.824
 4654SOL    HW118614   0.514   2.954   2.881
 4654SOL    HW218615   0.457   2.969   2.742
 4654SOL     MW18616   0.471   3.003   2.821
 4655SOL     OW18617   5.275   6.112   3.959
 4655SOL    HW118618   5.284   6.065   3.876
 4655SOL    HW218619   5.327   6.061   4.021
 4655SOL     MW18620   5.282   6.100   3.956
 4656SOL     OW18621   4.209   5.564   0.570
 4656SOL    HW118622   4.168   5.514   0.499
 4656SOL    HW218623   4.216   5.652   0.536
 4656SOL     MW18624   4.204   5.568   0.558
 4657SOL     OW18625   1.493   2.305   2.552
 4657SOL    HW118626   1.551   2.288   2.477
 4657SOL    HW218627   1.530   2.381   2.594
 4657SOL     MW18628   1.504   2.312   2.547
 4658SOL     OW18629   3.525   3.780   5.689
 4658SOL    HW118630   3.487   3.709   5.741
 4658SOL    HW218631   3.549   3.846   5.753
 4658SOL     MW18632   3.523   3.779   5.703
 4659SOL     OW18633   4.574   5.104   2.002
 4659SOL    HW118634   4.485   5.069   1.995
 4659SOL    HW218635   4.599   5.122   1.912
 4659SOL     MW18636   4.566   5.102   1.990
 4660SOL     OW18637   1.313   1.754   3.977
 4660SOL    HW118638   1.269   1.835   3.949
 4660SOL    HW218639   1.300   1.751   4.071
 4660SOL     MW18640   1.306   1.763   3.985
 4661SOL     OW18641   3.876   0.392   3.379
 4661SOL    HW118642   3.953   0.449   3.389
 4661SOL    HW218643   3.807   0.438   3.425
 4661SOL     MW18644   3.877   0.405   3.386
 4662SOL     OW18645   2.563   3.771   2.045
 4662SOL    HW118646   2.622   3.843   2.023
 4662SOL    HW218647   2.496   3.810   2.099
 4662SOL     MW18648   2.562   3.784   2.049
 4663SOL     OW18649   0.093   5.605   4.899
 4663SOL    HW118650   0.137   5.528   4.860
 4663SOL    HW218651   0.102   5.592   4.993
 4663SOL     MW18652   0.100   5.594   4.905
 4664SOL     OW18653   5.534   2.382   2.975
 4664SOL    HW118654   5.491   2.363   3.059
 4664SOL    HW218655   5.610   2.325   2.974
 4664SOL     MW18656   5.538   2.373   2.985
 4665SOL     OW18657   5.367   3.113   1.405
 4665SOL    HW118658   5.270   3.114   1.403
 4665SOL    HW218659   5.392   3.201   1.379
 4665SOL     MW18660   5.358   3.123   1.401
 4666SOL     OW18661   1.529   3.759   3.928
 4666SOL    HW118662   1.542   3.833   3.867
 4666SOL    HW218663   1.504   3.800   4.010
 4666SOL     MW18664   1.528   3.773   3.930
 4667SOL     OW18665   4.464   5.645   5.873
 4667SOL    HW118666   4.532   5.579   5.855
 4667SOL    HW218667   4.483   5.675   5.961
 4667SOL     MW18668   4.474   5.641   5.881
 4668SOL     OW18669   4.038   4.736   1.052
 4668SOL    HW118670   3.955   4.709   1.012
 4668SOL    HW218671   4.066   4.659   1.100
 4668SOL     MW18672   4.031   4.724   1.053
 4669SOL     OW18673   5.069   0.957   2.147
 4669SOL    HW118674   5.082   0.934   2.055
 4669SOL    HW218675   5.157   0.955   2.183
 4669SOL     MW18676   5.081   0.954   2.140
 4670SOL     OW18677   3.522   0.776   0.519
 4670SOL    HW118678   3.563   0.759   0.604
 4670SOL    HW218679   3.550   0.703   0.465
 4670SOL     MW18680   3.530   0.765   0.523
 4671SOL     OW18681   5.171   0.519   1.013
 4671SOL    HW118682   5.119   0.595   0.984
 4671SOL    HW218683   5.153   0.513   1.106
 4671SOL     MW18684   5.162   0.527   1.021
 4672SOL     OW18685   0.874   0.500   3.822
 4672SOL    HW118686   0.784   0.530   3.803
 4672SOL    HW218687   0.918   0.576   3.857
 4672SOL     MW18688   0.868   0.512   3.824
 4673SOL     OW18689   0.639   0.462   5.289
 4673SOL    HW118690   0.734   0.468   5.302
 4673SOL    HW218691   0.611   0.552   5.277
 4673SOL     MW18692   0.647   0.474   5.289
 4674SOL     OW18693   4.918   2.171   0.707
 4674SOL    HW118694   4.856   2.154   0.635
 4674SOL    HW218695   4.867   2.155   0.786
 4674SOL     MW18696   4.904   2.167   0.708
 4675SOL     OW18697   4.567   0.298   0.451
 4675SOL    HW118698   4.650   0.343   0.431
 4675SOL    HW218699   4.583   0.207   0.430
 4675SOL     MW18700   4.579   0.293   0.446
 4676SOL     OW18701   4.176   5.799   4.408
 4676SOL    HW118702   4.268   5.822   4.390
 4676SOL    HW218703   4.179   5.763   4.496
 4676SOL     MW18704   4.188   5.797   4.417
 4677SOL     OW18705  -0.014   5.434   4.734
 4677SOL    HW118706   0.004   5.340   4.731
 4677SOL    HW218707   0.044   5.471   4.667
 4677SOL     MW18708  -0.005   5.427   4.725
 4678SOL     OW18709   0.920   4.713   1.720
 4678SOL    HW118710   0.955   4.764   1.793
 4678SOL    HW218711   0.971   4.740   1.645
 4678SOL     MW18712   0.930   4.722   1.720
 4679SOL     OW18713   3.268   1.886   6.070
 4679SOL    HW118714   3.188   1.839   6.045
 4679SOL    HW218715   3.314   1.825   6.127
 4679SOL     MW18716   3.264   1.873   6.074
 4680SOL     OW18717   4.907   5.088   1.682
 4680SOL    HW118718   4.928   5.074   1.589
 4680SOL    HW218719   4.813   5.074   1.686
 4680SOL     MW18720   4.898   5.084   1.671
 4681SOL     OW18721   4.205   3.637   3.788
 4681SOL    HW118722   4.236   3.635   3.696
 4681SOL    HW218723   4.123   3.589   3.785
 4681SOL     MW18724   4.199   3.631   3.776
 4682SOL     OW18725   3.140   2.879   5.185
 4682SOL    HW118726   3.157   2.805   5.126
 4682SOL    HW218727   3.046   2.887   5.187
 4682SOL     MW18728   3.131   2.871   5.178
 4683SOL     OW18729   0.180   3.376   4.623
 4683SOL    HW118730   0.226   3.359   4.540
 4683SOL    HW218731   0.134   3.295   4.641
 4683SOL     MW18732   0.180   3.365   4.615
 4684SOL     OW18733   4.483   3.506   3.190
 4684SOL    HW118734   4.462   3.436   3.128
 4684SOL    HW218735   4.569   3.484   3.223
 4684SOL     MW18736   4.491   3.495   3.187
 4685SOL     OW18737   0.577   6.097   3.114
 4685SOL    HW118738   0.558   6.156   3.188
 4685SOL    HW218739   0.617   6.021   3.155
 4685SOL     MW18740   0.579   6.095   3.128
 4686SOL     OW18741   5.748   1.875   0.261
 4686SOL    HW118742   5.655   1.849   0.268
 4686SOL    HW218743   5.758   1.899   0.170
 4686SOL     MW18744   5.738   1.874   0.251
 4687SOL     OW18745   1.273   3.351   3.490
 4687SOL    HW118746   1.317   3.376   3.572
 4687SOL    HW218747   1.341   3.356   3.424
 4687SOL     MW18748   1.286   3.355   3.492
 4688SOL     OW18749   1.485   0.444   3.790
 4688SOL    HW118750   1.395   0.417   3.811
 4688SOL    HW218751   1.538   0.369   3.814
 4688SOL     MW18752   1.480   0.432   3.796
 4689SOL     OW18753   2.143   5.330   3.396
 4689SOL    HW118754   2.058   5.374   3.403
 4689SOL    HW218755   2.161   5.300   3.484
 4689SOL     MW18756   2.135   5.332   3.407
 4690SOL     OW18757   3.874   5.472   1.501
 4690SOL    HW118758   3.899   5.499   1.412
 4690SOL    HW218759   3.852   5.553   1.545
 4690SOL     MW18760   3.875   5.485   1.495
 4691SOL     OW18761   2.656   2.238   2.930
 4691SOL    HW118762   2.701   2.157   2.902
 4691SOL    HW218763   2.671   2.241   3.024
 4691SOL     MW18764   2.664   2.228   2.938
 4692SOL     OW18765   3.904   5.115   0.893
 4692SOL    HW118766   3.917   5.090   0.801
 4692SOL    HW218767   3.917   5.209   0.894
 4692SOL     MW18768   3.907   5.123   0.882
 4693SOL     OW18769   0.893   5.654   4.455
 4693SOL    HW118770   0.817   5.709   4.433
 4693SOL    HW218771   0.908   5.671   4.547
 4693SOL     MW18772   0.886   5.663   4.463
 4694SOL     OW18773   0.060   2.130  -0.003
 4694SOL    HW118774  -0.035   2.145   0.004
 4694SOL    HW218775   0.099   2.197   0.051
 4694SOL     MW18776   0.053   2.140   0.004
 4695SOL     OW18777   1.354   2.452   3.591
 4695SOL    HW118778   1.356   2.548   3.586
 4695SOL    HW218779   1.328   2.425   3.504
 4695SOL     MW18780   1.351   2.461   3.580
 4696SOL     OW18781   1.562   3.645   1.030
 4696SOL    HW118782   1.589   3.681   1.115
 4696SOL    HW218783   1.641   3.649   0.976
 4696SOL     MW18784   1.575   3.649   1.034
 4697SOL     OW18785   2.271   2.130   5.477
 4697SOL    HW118786   2.361   2.138   5.510
 4697SOL    HW218787   2.281   2.118   5.384
 4697SOL     MW18788   2.283   2.130   5.470
 4698SOL     OW18789   5.705   3.879   2.789
 4698SOL    HW118790   5.675   3.810   2.730
 4698SOL    HW218791   5.798   3.862   2.800
 4698SOL     MW18792   5.712   3.869   2.783
 4699SOL     OW18793   3.635   4.309   0.805
 4699SOL    HW118794   3.552   4.277   0.769
 4699SOL    HW218795   3.618   4.322   0.897
 4699SOL     MW18796   3.623   4.307   0.811
 4700SOL     OW18797   0.730   2.097   3.340
 4700SOL    HW118798   0.763   2.180   3.376
 4700SOL    HW218799   0.737   2.108   3.246
 4700SOL     MW18800   0.735   2.108   3.333
 4701SOL     OW18801   4.513   5.925   5.771
 4701SOL    HW118802   4.429   5.970   5.758
 4701SOL    HW218803   4.552   5.969   5.845
 4701SOL     MW18804   4.507   5.936   5.778
 4702SOL     OW18805   3.943   5.409   5.838
 4702SOL    HW118806   4.001   5.436   5.766
 4702SOL    HW218807   3.991   5.432   5.917
 4702SOL     MW18808   3.956   5.415   5.839
 4703SOL     OW18809   0.802   0.348   4.372
 4703SOL    HW118810   0.707   0.359   4.359
 4703SOL    HW218811   0.808   0.287   4.445
 4703SOL     MW18812   0.791   0.342   4.379
 4704SOL     OW18813   0.438   4.603   5.190
 4704SOL    HW118814   0.469   4.678   5.139
 4704SOL    HW218815   0.426   4.637   5.277
 4704SOL     MW18816   0.440   4.616   5.194
 4705SOL     OW18817   0.544   1.249   5.135
 4705SOL    HW118818   0.631   1.287   5.148
 4705SOL    HW218819   0.536   1.238   5.042
 4705SOL     MW18820   0.554   1.252   5.126
 4706SOL     OW18821   1.707   0.097   2.425
 4706SOL    HW118822   1.800   0.073   2.417
 4706SOL    HW218823   1.688   0.088   2.517
 4706SOL     MW18824   1.716   0.093   2.435
 4707SOL     OW18825   5.427   4.781   3.623
 4707SOL    HW118826   5.493   4.803   3.690
 4707SOL    HW218827   5.477   4.773   3.543
 4707SOL     MW18828   5.441   4.783   3.621
 4708SOL     OW18829   5.387   0.118   3.109
 4708SOL    HW118830   5.333   0.086   3.182
 4708SOL    HW218831   5.330   0.178   3.062
 4708SOL     MW18832   5.374   0.121   3.112
 4709SOL     OW18833   3.121   1.124   1.612
 4709SOL    HW118834   3.124   1.130   1.516
 4709SOL    HW218835   3.085   1.208   1.639
 4709SOL     MW18836   3.117   1.135   1.603
 4710SOL     OW18837   5.430   1.539   3.197
 4710SOL    HW118838   5.505   1.599   3.210
 4710SOL    HW218839   5.395   1.565   3.113
 4710SOL     MW18840   5.435   1.550   3.188
 4711SOL     OW18841   2.401   1.629   6.063
 4711SOL    HW118842   2.446   1.708   6.032
 4711SOL    HW218843   2.310   1.655   6.069
 4711SOL     MW18844   2.395   1.642   6.060
 4712SOL     OW18845   2.590   1.640   3.019
 4712SOL    HW118846   2.534   1.571   3.055
 4712SOL    HW218847   2.582   1.631   2.925
 4712SOL     MW18848   2.582   1.631   3.012
 4713SOL     OW18849   2.523   3.034   5.296
 4713SOL    HW118850   2.539   2.946   5.262
 4713SOL    HW218851   2.466   3.021   5.371
 4713SOL     MW18852   2.519   3.022   5.301
 4714SOL     OW18853   3.082   3.812   0.035
 4714SOL    HW118854   3.157   3.798   0.093
 4714SOL    HW218855   3.120   3.811  -0.052
 4714SOL     MW18856   3.096   3.810   0.031
 4715SOL     OW18857   1.763   4.195   5.161
 4715SOL    HW118858   1.746   4.192   5.255
 4715SOL    HW218859   1.681   4.223   5.123
 4715SOL     MW18860   1.752   4.198   5.168
 4716SOL     OW18861   4.068   3.860   2.048
 4716SOL    HW118862   3.978   3.852   2.015
 4716SOL    HW218863   4.066   3.938   2.102
 4716SOL     MW18864   4.057   3.869   2.051
 4717SOL     OW18865   1.028   3.312   2.541
 4717SOL    HW118866   1.042   3.407   2.540
 4717SOL    HW218867   1.105   3.278   2.584
 4717SOL     MW18868   1.039   3.320   2.546
 4718SOL     OW18869   0.755   5.342   0.101
 4718SOL    HW118870   0.761   5.363   0.195
 4718SOL    HW218871   0.843   5.317   0.077
 4718SOL     MW18872   0.766   5.342   0.110
 4719SOL     OW18873   2.072   1.292   2.548
 4719SOL    HW118874   2.042   1.250   2.467
 4719SOL    HW218875   2.125   1.365   2.519
 4719SOL     MW18876   2.075   1.295   2.535
 4720SOL     OW18877   1.946   4.961   1.737
 4720SOL    HW118878   2.009   4.905   1.783
 4720SOL    HW218879   1.866   4.909   1.734
 4720SOL     MW18880   1.944   4.948   1.742
 4721SOL     OW18881   4.824   5.759   2.424
 4721SOL    HW118882   4.728   5.766   2.434
 4721SOL    HW218883   4.839   5.777   2.332
 4721SOL     MW18884   4.814   5.762   2.414
 4722SOL     OW18885   0.404   0.088   4.337
 4722SOL    HW118886   0.355   0.074   4.256
 4722SOL    HW218887   0.339   0.119   4.399
 4722SOL     MW18888   0.390   0.090   4.335
 4723SOL     OW18889   4.959   3.192   3.882
 4723SOL    HW118890   5.035   3.238   3.844
 4723SOL    HW218891   4.926   3.253   3.947
 4723SOL     MW18892   4.965   3.205   3.885
 4724SOL     OW18893   2.968   2.829   4.110
 4724SOL    HW118894   3.054   2.845   4.151
 4724SOL    HW218895   2.985   2.841   4.017
 4724SOL     MW18896   2.981   2.833   4.104
 4725SOL     OW18897   2.152   2.365   3.547
 4725SOL    HW118898   2.150   2.269   3.557
 4725SOL    HW218899   2.126   2.379   3.457
 4725SOL     MW18900   2.149   2.355   3.537
 4726SOL     OW18901   5.705   0.801   5.854
 4726SOL    HW118902   5.657   0.721   5.877
 4726SOL    HW218903   5.692   0.810   5.760
 4726SOL     MW18904   5.698   0.793   5.846
 4727SOL     OW18905   0.438   1.611   2.067
 4727SOL    HW118906   0.358   1.662   2.046
 4727SOL    HW218907   0.456   1.632   2.158
 4727SOL     MW18908   0.430   1.620   2.075
 4728SOL     OW18909   4.593   5.210   3.320
 4728SOL    HW118910   4.593   5.219   3.416
 4728SOL    HW218911   4.587   5.299   3.288
 4728SOL     MW18912   4.592   5.222   3.328
 4729SOL     OW18913   4.381   2.982   0.417
 4729SOL    HW118914   4.386   3.004   0.324
 4729SOL    HW218915   4.313   2.916   0.422
 4729SOL     MW18916   4.374   2.976   0.406
 4730SOL     OW18917   2.482   5.559   5.427
 4730SOL    HW118918   2.433   5.480   5.448
 4730SOL    HW218919   2.446   5.625   5.485
 4730SOL     MW18920   2.472   5.557   5.436
 4731SOL     OW18921   5.257   2.640   3.269
 4731SOL    HW118922   5.338   2.686   3.246
 4731SOL    HW218923   5.242   2.662   3.360
 4731SOL     MW18924   5.265   2.648   3.277
 4732SOL     OW18925   0.429   0.381   2.748
 4732SOL    HW118926   0.466   0.292   2.747
 4732SOL    HW218927   0.461   0.421   2.668
 4732SOL     MW18928   0.437   0.375   2.739
 4733SOL     OW18929   3.780   5.248   5.381
 4733SOL    HW118930   3.814   5.321   5.328
 4733SOL    HW218931   3.773   5.176   5.319
 4733SOL     MW18932   3.783   5.249   5.367
 4734SOL     OW18933   4.897   4.402   2.881
 4734SOL    HW118934   4.888   4.374   2.972
 4734SOL    HW218935   4.991   4.401   2.866
 4734SOL     MW18936   4.907   4.398   2.890
 4735SOL     OW18937   1.116   3.755   2.159
 4735SOL    HW118938   1.044   3.815   2.183
 4735SOL    HW218939   1.128   3.768   2.066
 4735SOL     MW18940   1.109   3.764   2.151
 4736SOL     OW18941   1.179   0.228   0.790
 4736SOL    HW118942   1.245   0.186   0.733
 4736SOL    HW218943   1.097   0.194   0.759
 4736SOL     MW18944   1.178   0.218   0.779
 4737SOL     OW18945   2.703   0.888   2.145
 4737SOL    HW118946   2.691   0.793   2.138
 4737SOL    HW218947   2.785   0.898   2.193
 4737SOL     MW18948   2.711   0.878   2.150
 4738SOL     OW18949   5.229   1.590   5.692
 4738SOL    HW118950   5.153   1.616   5.746
 4738SOL    HW218951   5.262   1.512   5.734
 4738SOL     MW18952   5.224   1.584   5.704
 4739SOL     OW18953   2.778   2.358   6.020
 4739SOL    HW118954   2.867   2.385   5.994
 4739SOL    HW218955   2.758   2.285   5.963
 4739SOL     MW18956   2.786   2.353   6.010
 4740SOL     OW18957   0.718   1.932   1.911
 4740SOL    HW118958   0.740   1.848   1.954
 4740SOL    HW218959   0.728   1.913   1.819
 4740SOL     MW18960   0.722   1.919   1.906
 4741SOL     OW18961   4.296   3.703   4.766
 4741SOL    HW118962   4.271   3.641   4.697
 4741SOL    HW218963   4.315   3.648   4.841
 4741SOL     MW18964   4.296   3.689   4.767
 4742SOL     OW18965   2.127   3.915   3.888
 4742SOL    HW118966   2.203   3.964   3.921
 4742SOL    HW218967   2.158   3.875   3.808
 4742SOL     MW18968   2.140   3.916   3.883
 4743SOL     OW18969   0.669   4.680   4.909
 4743SOL    HW118970   0.756   4.706   4.878
 4743SOL    HW218971   0.682   4.661   5.001
 4743SOL     MW18972   0.681   4.681   4.916
 4744SOL     OW18973   5.129   2.582   5.121
 4744SOL    HW118974   5.179   2.625   5.051
 4744SOL    HW218975   5.140   2.639   5.196
 4744SOL     MW18976   5.137   2.594   5.122
 4745SOL     OW18977   2.613   1.419   0.062
 4745SOL    HW118978   2.644   1.458   0.144
 4745SOL    HW218979   2.546   1.478   0.031
 4745SOL     MW18980   2.609   1.430   0.068
 4746SOL     OW18981   0.197   2.929   0.327
 4746SOL    HW118982   0.168   2.866   0.260
 4746SOL    HW218983   0.205   2.877   0.406
 4746SOL     MW18984   0.194   2.915   0.328
 4747SOL     OW18985   1.776   3.004   3.447
 4747SOL    HW118986   1.860   3.049   3.434
 4747SOL    HW218987   1.782   2.969   3.535
 4747SOL     MW18988   1.787   3.005   3.456
 4748SOL     OW18989   2.436   5.357   0.813
 4748SOL    HW118990   2.383   5.412   0.754
 4748SOL    HW218991   2.517   5.343   0.765
 4748SOL     MW18992   2.439   5.362   0.800
 4749SOL     OW18993   3.845   2.381   1.676
 4749SOL    HW118994   3.812   2.440   1.745
 4749SOL    HW218995   3.824   2.426   1.596
 4749SOL     MW18996   3.838   2.394   1.675
 4750SOL     OW18997   2.080   5.231   0.887
 4750SOL    HW118998   2.154   5.193   0.838
 4750SOL    HW218999   2.114   5.247   0.974
 4750SOL     MW19000   2.093   5.228   0.891
 4751SOL     OW19001   4.321   2.848   2.915
 4751SOL    HW119002   4.239   2.877   2.956
 4751SOL    HW219003   4.306   2.756   2.896
 4751SOL     MW19004   4.309   2.841   2.918
 4752SOL     OW19005   4.681   0.781   3.581
 4752SOL    HW119006   4.725   0.740   3.656
 4752SOL    HW219007   4.738   0.763   3.508
 4752SOL     MW19008   4.693   0.774   3.582
 4753SOL     OW19009   5.367   0.839   1.269
 4753SOL    HW119010   5.274   0.822   1.251
 4753SOL    HW219011   5.370   0.931   1.291
 4753SOL     MW19012   5.356   0.848   1.269
 4754SOL     OW19013   2.914   1.697   2.831
 4754SOL    HW119014   2.826   1.735   2.843
 4754SOL    HW219015   2.896   1.609   2.799
 4754SOL     MW19016   2.901   1.691   2.829
 4755SOL     OW19017   0.870   5.898   0.230
 4755SOL    HW119018   0.775   5.884   0.236
 4755SOL    HW219019   0.889   5.958   0.301
 4755SOL     MW19020   0.860   5.903   0.239
 4756SOL     OW19021   3.414   3.749   4.149
 4756SOL    HW119022   3.387   3.666   4.109
 4756SOL    HW219023   3.415   3.731   4.242
 4756SOL     MW19024   3.411   3.737   4.155
 4757SOL     OW19025   0.551   3.618   1.208
 4757SOL    HW119026   0.598   3.701   1.221
 4757SOL    HW219027   0.578   3.590   1.121
 4757SOL     MW19028   0.560   3.624   1.199
 4758SOL     OW19029   3.236   4.029   3.627
 4758SOL    HW119030   3.323   4.062   3.651
 4758SOL    HW219031   3.234   4.035   3.532
 4758SOL     MW19032   3.246   4.034   3.619
 4759SOL     OW19033   5.161   3.869   0.033
 4759SOL    HW119034   5.073   3.831   0.019
 4759SOL    HW219035   5.143   3.952   0.076
 4759SOL     MW19036   5.148   3.874   0.037
 4760SOL     OW19037   2.543   3.910   2.872
 4760SOL    HW119038   2.520   3.886   2.962
 4760SOL    HW219039   2.580   3.831   2.835
 4760SOL     MW19040   2.545   3.898   2.879
 4761SOL     OW19041   4.469   0.882   3.213
 4761SOL    HW119042   4.475   0.972   3.179
 4761SOL    HW219043   4.471   0.892   3.307
 4761SOL     MW19044   4.470   0.894   3.220
 4762SOL     OW19045   4.376   2.783   2.182
 4762SOL    HW119046   4.336   2.697   2.169
 4762SOL    HW219047   4.409   2.807   2.096
 4762SOL     MW19048   4.375   2.775   2.170
 4763SOL     OW19049   0.813   1.915   5.919
 4763SOL    HW119050   0.899   1.900   5.879
 4763SOL    HW219051   0.831   1.918   6.012
 4763SOL     MW19052   0.826   1.914   5.925
 4764SOL     OW19053   1.715   4.467   0.926
 4764SOL    HW119054   1.623   4.493   0.918
 4764SOL    HW219055   1.761   4.523   0.864
 4764SOL     MW19056   1.709   4.477   0.917
 4765SOL     OW19057   3.652   0.583   1.572
 4765SOL    HW119058   3.683   0.660   1.621
 4765SOL    HW219059   3.723   0.564   1.512
 4765SOL     MW19060   3.664   0.590   1.571
 4766SOL     OW19061   1.860   3.899   4.617
 4766SOL    HW119062   1.780   3.939   4.653
 4766SOL    HW219063   1.856   3.920   4.524
 4766SOL     MW19064   1.850   3.907   4.611
 4767SOL     OW19065   0.912   5.249   4.262
 4767SOL    HW119066   0.921   5.310   4.188
 4767SOL    HW219067   0.996   5.253   4.306
 4767SOL     MW19068   0.923   5.257   4.258
 4768SOL     OW19069   3.851   4.688   4.948
 4768SOL    HW119070   3.947   4.691   4.960
 4768SOL    HW219071   3.837   4.721   4.861
 4768SOL     MW19072   3.862   4.692   4.939
 4769SOL     OW19073   2.614   5.009   1.657
 4769SOL    HW119074   2.609   4.923   1.701
 4769SOL    HW219075   2.604   4.989   1.565
 4769SOL     MW19076   2.612   4.996   1.651
 4770SOL     OW19077   0.403   5.970   2.027
 4770SOL    HW119078   0.481   6.012   1.989
 4770SOL    HW219079   0.419   5.973   2.120
 4770SOL     MW19080   0.414   5.976   2.033
 4771SOL     OW19081   4.001   0.415   0.145
 4771SOL    HW119082   3.934   0.391   0.210
 4771SOL    HW219083   4.055   0.337   0.137
 4771SOL     MW19084   3.999   0.403   0.152
 4772SOL     OW19085   4.988   0.200   3.141
 4772SOL    HW119086   5.058   0.168   3.083
 4772SOL    HW219087   5.015   0.172   3.227
 4772SOL     MW19088   5.000   0.193   3.144
 4773SOL     OW19089   2.162   0.474   4.295
 4773SOL    HW119090   2.136   0.548   4.352
 4773SOL    HW219091   2.117   0.492   4.213
 4773SOL     MW19092   2.153   0.485   4.292
 4774SOL     OW19093   5.958   4.662   4.158
 4774SOL    HW119094   5.947   4.675   4.063
 4774SOL    HW219095   5.943   4.569   4.171
 4774SOL     MW19096   5.955   4.653   4.148
 4775SOL     OW19097   2.099   3.702   2.055
 4775SOL    HW119098   2.039   3.659   1.993
 4775SOL    HW219099   2.150   3.631   2.092
 4775SOL     MW19100   2.098   3.688   2.052
 4776SOL     OW19101   3.272   3.721   5.401
 4776SOL    HW119102   3.288   3.656   5.470
 4776SOL    HW219103   3.300   3.803   5.439
 4776SOL     MW19104   3.278   3.723   5.414
 4777SOL     OW19105   3.097   2.755   5.760
 4777SOL    HW119106   3.033   2.715   5.700
 4777SOL    HW219107   3.121   2.684   5.818
 4777SOL     MW19108   3.092   2.741   5.760
 4778SOL     OW19109   2.179   2.067   4.032
 4778SOL    HW119110   2.151   2.139   4.090
 4778SOL    HW219111   2.220   2.111   3.959
 4778SOL     MW19112   2.181   2.081   4.031
 4779SOL     OW19113   0.059   6.058   5.950
 4779SOL    HW119114   0.091   6.068   6.041
 4779SOL    HW219115   0.095   6.134   5.905
 4779SOL     MW19116   0.068   6.068   5.956
 4780SOL     OW19117   4.815   3.312   5.390
 4780SOL    HW119118   4.856   3.394   5.418
 4780SOL    HW219119   4.833   3.252   5.461
 4780SOL     MW19120   4.822   3.315   5.402
 4781SOL     OW19121   3.012   2.993   4.909
 4781SOL    HW119122   2.939   3.039   4.952
 4781SOL    HW219123   3.083   3.056   4.911
 4781SOL     MW19124   3.012   3.006   4.915
 4782SOL     OW19125   3.616   5.115   2.905
 4782SOL    HW119126   3.548   5.051   2.877
 4782SOL    HW219127   3.568   5.195   2.918
 4782SOL     MW19128   3.602   5.116   2.903
 4783SOL     OW19129   4.083   0.543   2.849
 4783SOL    HW119130   4.048   0.622   2.807
 4783SOL    HW219131   4.108   0.487   2.776
 4783SOL     MW19132   4.082   0.546   2.835
 4784SOL     OW19133   1.732   3.414   2.406
 4784SOL    HW119134   1.661   3.455   2.355
 4784SOL    HW219135   1.735   3.465   2.486
 4784SOL     MW19136   1.724   3.425   2.409
 4785SOL     OW19137   5.808   5.746   5.896
 4785SOL    HW119138   5.758   5.783   5.823
 4785SOL    HW219139   5.752   5.760   5.972
 4785SOL     MW19140   5.795   5.752   5.896
 4786SOL     OW19141   3.437   4.912   2.773
 4786SOL    HW119142   3.372   4.841   2.776
 4786SOL    HW219143   3.520   4.867   2.786
 4786SOL     MW19144   3.439   4.898   2.775
 4787SOL     OW19145   3.250   1.248   3.145
 4787SOL    HW119146   3.345   1.260   3.159
 4787SOL    HW219147   3.222   1.330   3.107
 4787SOL     MW19148   3.259   1.259   3.142
 4788SOL     OW19149   3.088   0.404   0.050
 4788SOL    HW119150   3.087   0.383   0.145
 4788SOL    HW219151   3.104   0.320   0.008
 4788SOL     MW19152   3.090   0.391   0.057
 4789SOL     OW19153   2.294   5.689   0.739
 4789SOL    HW119154   2.252   5.616   0.786
 4789SOL    HW219155   2.277   5.670   0.647
 4789SOL     MW19156   2.287   5.677   0.734
 4790SOL     OW19157   5.083   1.505   4.069
 4790SOL    HW119158   5.026   1.438   4.028
 4790SOL    HW219159   5.073   1.490   4.162
 4790SOL     MW19160   5.074   1.495   4.075
 4791SOL     OW19161   5.564   0.016   2.210
 4791SOL    HW119162   5.595   0.061   2.130
 4791SOL    HW219163   5.609  -0.068   2.208
 4791SOL     MW19164   5.573   0.012   2.200
 4792SOL     OW19165   2.781   3.898   3.981
 4792SOL    HW119166   2.844   3.855   4.040
 4792SOL    HW219167   2.730   3.826   3.945
 4792SOL     MW19168   2.783   3.884   3.984
 4793SOL     OW19169   2.822   4.445   2.757
 4793SOL    HW119170   2.727   4.434   2.762
 4793SOL    HW219171   2.856   4.356   2.750
 4793SOL     MW19172   2.815   4.433   2.757
 4794SOL     OW19173   1.011   6.053   0.491
 4794SOL    HW119174   0.942   6.089   0.434
 4794SOL    HW219175   1.059   5.994   0.434
 4794SOL     MW19176   1.008   6.050   0.477
 4795SOL     OW19177   1.704   4.603   1.817
 4795SOL    HW119178   1.693   4.676   1.755
 4795SOL    HW219179   1.768   4.636   1.880
 4795SOL     MW19180   1.710   4.616   1.817
 4796SOL     OW19181   2.387   0.782   0.155
 4796SOL    HW119182   2.448   0.750   0.088
 4796SOL    HW219183   2.353   0.703   0.195
 4796SOL     MW19184   2.390   0.769   0.152
 4797SOL     OW19185   4.553   4.238   2.321
 4797SOL    HW119186   4.573   4.195   2.237
 4797SOL    HW219187   4.546   4.330   2.299
 4797SOL     MW19188   4.555   4.243   2.308
 4798SOL     OW19189   2.016   2.807   1.603
 4798SOL    HW119190   1.933   2.834   1.643
 4798SOL    HW219191   2.051   2.886   1.565
 4798SOL     MW19192   2.010   2.819   1.604
 4799SOL     OW19193   4.980   0.791   4.798
 4799SOL    HW119194   5.005   0.862   4.738
 4799SOL    HW219195   5.058   0.737   4.804
 4799SOL     MW19196   4.992   0.794   4.792
 4800SOL     OW19197   4.873   2.758   4.705
 4800SOL    HW119198   4.849   2.712   4.786
 4800SOL    HW219199   4.843   2.701   4.636
 4800SOL     MW19200   4.866   2.746   4.707
 4801SOL     OW19201   4.079   2.417   2.184
 4801SOL    HW119202   4.064   2.475   2.109
 4801SOL    HW219203   4.032   2.338   2.162
 4801SOL     MW19204   4.072   2.415   2.173
 4802SOL     OW19205   5.076   0.992   5.042
 4802SOL    HW119206   5.060   1.080   5.078
 4802SOL    HW219207   5.069   1.003   4.948
 4802SOL     MW19208   5.074   1.004   5.036
 4803SOL     OW19209   2.391   3.504   0.659
 4803SOL    HW119210   2.430   3.417   0.662
 4803SOL    HW219211   2.413   3.543   0.743
 4803SOL     MW19212   2.398   3.498   0.670
 4804SOL     OW19213   5.497   4.507   0.276
 4804SOL    HW119214   5.468   4.594   0.306
 4804SOL    HW219215   5.503   4.516   0.182
 4804SOL     MW19216   5.494   4.519   0.268
 4805SOL     OW19217   0.351   3.762   2.368
 4805SOL    HW119218   0.317   3.780   2.456
 4805SOL    HW219219   0.284   3.709   2.327
 4805SOL     MW19220   0.339   3.758   2.374
 4806SOL     OW19221   2.716   0.754   3.061
 4806SOL    HW119222   2.707   0.796   3.148
 4806SOL    HW219223   2.644   0.692   3.058
 4806SOL     MW19224   2.707   0.752   3.071
 4807SOL     OW19225   5.165   4.600   1.686
 4807SOL    HW119226   5.208   4.661   1.747
 4807SOL    HW219227   5.089   4.647   1.654
 4807SOL     MW19228   5.161   4.613   1.690
 4808SOL     OW19229   4.618   2.784   4.258
 4808SOL    HW119230   4.698   2.781   4.311
 4808SOL    HW219231   4.645   2.830   4.179
 4808SOL     MW19232   4.631   2.789   4.255
 4809SOL     OW19233   5.967   4.752   3.859
 4809SOL    HW119234   6.035   4.691   3.888
 4809SOL    HW219235   5.941   4.720   3.774
 4809SOL     MW19236   5.972   4.741   3.853
 4810SOL     OW19237   3.463   0.642   3.413
 4810SOL    HW119238   3.501   0.721   3.372
 4810SOL    HW219239   3.466   0.661   3.506
 4810SOL     MW19240   3.468   0.654   3.419
 4811SOL     OW19241   5.544   0.902   2.877
 4811SOL    HW119242   5.450   0.890   2.895
 4811SOL    HW219243   5.587   0.873   2.957
 4811SOL     MW19244   5.538   0.897   2.889
 4812SOL     OW19245   1.685   1.293   3.367
 4812SOL    HW119246   1.654   1.382   3.347
 4812SOL    HW219247   1.779   1.303   3.376
 4812SOL     MW19248   1.693   1.305   3.366
 4813SOL     OW19249   2.647   1.439   0.347
 4813SOL    HW119250   2.727   1.470   0.302
 4813SOL    HW219251   2.666   1.451   0.439
 4813SOL     MW19252   2.659   1.444   0.352
 4814SOL     OW19253   2.773   3.791   3.331
 4814SOL    HW119254   2.782   3.868   3.389
 4814SOL    HW219255   2.690   3.752   3.357
 4814SOL     MW19256   2.764   3.796   3.342
 4815SOL     OW19257   2.533   5.327   4.003
 4815SOL    HW119258   2.615   5.364   3.967
 4815SOL    HW219259   2.470   5.397   3.992
 4815SOL     MW19260   2.536   5.340   3.997
 4816SOL     OW19261   6.049   2.163   3.562
 4816SOL    HW119262   6.011   2.090   3.512
 4816SOL    HW219263   5.980   2.188   3.622
 4816SOL     MW19264   6.036   2.157   3.563
 4817SOL     OW19265   2.014   1.869   3.428
 4817SOL    HW119266   1.952   1.826   3.488
 4817SOL    HW219267   2.018   1.812   3.353
 4817SOL     MW19268   2.007   1.857   3.427
 4818SOL     OW19269   2.314   0.828   4.823
 4818SOL    HW119270   2.241   0.776   4.788
 4818SOL    HW219271   2.311   0.813   4.916
 4818SOL     MW19272   2.305   0.820   4.829
 4819SOL     OW19273   1.801   5.473   2.134
 4819SOL    HW119274   1.893   5.504   2.131
 4819SOL    HW219275   1.809   5.379   2.146
 4819SOL     MW19276   1.813   5.466   2.135
 4820SOL     OW19277   3.224   5.558   2.967
 4820SOL    HW119278   3.222   5.611   2.887
 4820SOL    HW219279   3.177   5.479   2.943
 4820SOL     MW19280   3.218   5.555   2.955
 4821SOL     OW19281   2.276   5.592   3.345
 4821SOL    HW119282   2.211   5.584   3.415
 4821SOL    HW219283   2.283   5.686   3.330
 4821SOL     MW19284   2.269   5.602   3.352
 4822SOL     OW19285   5.212   1.026   3.958
 4822SOL    HW119286   5.163   1.109   3.961
 4822SOL    HW219287   5.185   0.981   4.037
 4822SOL     MW19288   5.203   1.031   3.968
 4823SOL     OW19289   4.032   4.458   2.574
 4823SOL    HW119290   4.002   4.548   2.590
 4823SOL    HW219291   4.054   4.457   2.481
 4823SOL     MW19292   4.031   4.469   2.565
 4824SOL     OW19293   4.395   2.546   2.751
 4824SOL    HW119294   4.401   2.467   2.695
 4824SOL    HW219295   4.396   2.618   2.689
 4824SOL     MW19296   4.396   2.545   2.737
 4825SOL     OW19297   1.709   3.394   5.436
 4825SOL    HW119298   1.736   3.485   5.416
 4825SOL    HW219299   1.657   3.402   5.516
 4825SOL     MW19300   1.706   3.406   5.443
 4826SOL     OW19301   4.035   0.499   2.175
 4826SOL    HW119302   4.005   0.549   2.252
 4826SOL    HW219303   3.989   0.416   2.183
 4826SOL     MW19304   4.026   0.495   2.186
 4827SOL     OW19305   1.795   1.181   3.719
 4827SOL    HW119306   1.714   1.227   3.697
 4827SOL    HW219307   1.814   1.129   3.642
 4827SOL     MW19308   1.788   1.181   3.707
 4828SOL     OW19309   5.276   0.573   3.266
 4828SOL    HW119310   5.275   0.650   3.209
 4828SOL    HW219311   5.341   0.593   3.332
 4828SOL     MW19312   5.284   0.585   3.267
 4829SOL     OW19313   1.774   1.117   3.492
 4829SOL    HW119314   1.717   1.048   3.527
 4829SOL    HW219315   1.734   1.197   3.522
 4829SOL     MW19316   1.762   1.118   3.500
 4830SOL     OW19317   0.881   0.204   2.740
 4830SOL    HW119318   0.837   0.202   2.654
 4830SOL    HW219319   0.964   0.247   2.723
 4830SOL     MW19320   0.885   0.209   2.727
 4831SOL     OW19321   2.290   2.135   3.597
 4831SOL    HW119322   2.305   2.121   3.503
 4831SOL    HW219323   2.359   2.195   3.623
 4831SOL     MW19324   2.300   2.140   3.588
 4832SOL     OW19325   1.632   5.802   3.852
 4832SOL    HW119326   1.600   5.768   3.768
 4832SOL    HW219327   1.604   5.738   3.915
 4832SOL     MW19328   1.624   5.791   3.849
 4833SOL     OW19329   3.865   3.482   2.693
 4833SOL    HW119330   3.823   3.553   2.743
 4833SOL    HW219331   3.806   3.468   2.620
 4833SOL     MW19332   3.853   3.489   2.690
 4834SOL     OW19333   2.414   4.726   2.569
 4834SOL    HW119334   2.332   4.711   2.521
 4834SOL    HW219335   2.386   4.757   2.654
 4834SOL     MW19336   2.401   4.728   2.574
 4835SOL     OW19337   1.599   1.818   3.135
 4835SOL    HW119338   1.628   1.856   3.052
 4835SOL    HW219339   1.637   1.732   3.136
 4835SOL     MW19340   1.607   1.813   3.125
 4836SOL     OW19341   0.837   1.256   1.487
 4836SOL    HW119342   0.839   1.199   1.409
 4836SOL    HW219343   0.908   1.223   1.541
 4836SOL     MW19344   0.846   1.245   1.484
 4837SOL     OW19345   5.162   2.448   1.412
 4837SOL    HW119346   5.119   2.436   1.327
 4837SOL    HW219347   5.228   2.514   1.396
 4837SOL     MW19348   5.165   2.454   1.400
 4838SOL     OW19349   0.255   4.639   3.462
 4838SOL    HW119350   0.219   4.701   3.398
 4838SOL    HW219351   0.180   4.611   3.513
 4838SOL     MW19352   0.242   4.643   3.460
 4839SOL     OW19353   3.693   5.169   1.511
 4839SOL    HW119354   3.734   5.167   1.598
 4839SOL    HW219355   3.762   5.142   1.451
 4839SOL     MW19356   3.706   5.165   1.514
 4840SOL     OW19357   2.238   3.009   4.473
 4840SOL    HW119358   2.285   2.939   4.520
 4840SOL    HW219359   2.225   2.975   4.386
 4840SOL     MW19360   2.242   2.996   4.469
 4841SOL     OW19361   1.252   2.398   6.062
 4841SOL    HW119362   1.252   2.325   6.124
 4841SOL    HW219363   1.179   2.379   6.004
 4841SOL     MW19364   1.244   2.387   6.062
 4842SOL     OW19365   3.766   4.522   1.066
 4842SOL    HW119366   3.799   4.612   1.065
 4842SOL    HW219367   3.829   4.473   1.014
 4842SOL     MW19368   3.777   4.527   1.060
 4843SOL     OW19369   1.598   1.283   4.077
 4843SOL    HW119370   1.505   1.270   4.059
 4843SOL    HW219371   1.638   1.200   4.053
 4843SOL     MW19372   1.592   1.272   4.072
 4844SOL     OW19373   1.411   0.170   1.060
 4844SOL    HW119374   1.452   0.101   1.007
 4844SOL    HW219375   1.468   0.245   1.048
 4844SOL     MW19376   1.423   0.170   1.052
 4845SOL     OW19377   1.695   3.554   3.243
 4845SOL    HW119378   1.633   3.615   3.202
 4845SOL    HW219379   1.679   3.563   3.336
 4845SOL     MW19380   1.686   3.563   3.249
 4846SOL     OW19381   5.754   4.148   3.801
 4846SOL    HW119382   5.744   4.065   3.850
 4846SOL    HW219383   5.746   4.123   3.710
 4846SOL     MW19384   5.752   4.135   3.796
 4847SOL     OW19385   3.370   2.107   2.228
 4847SOL    HW119386   3.464   2.091   2.244
 4847SOL    HW219387   3.361   2.098   2.134
 4847SOL     MW19388   3.380   2.104   2.219
 4848SOL     OW19389   3.546   0.042   3.788
 4848SOL    HW119390   3.493   0.084   3.856
 4848SOL    HW219391   3.581  -0.035   3.829
 4848SOL     MW19392   3.544   0.038   3.801
 4849SOL     OW19393   5.326   4.513   5.141
 4849SOL    HW119394   5.320   4.426   5.181
 4849SOL    HW219395   5.287   4.502   5.055
 4849SOL     MW19396   5.321   4.501   5.135
 4850SOL     OW19397   2.548   5.203   4.547
 4850SOL    HW119398   2.560   5.273   4.483
 4850SOL    HW219399   2.556   5.246   4.631
 4850SOL     MW19400   2.550   5.217   4.549
 4851SOL     OW19401   0.158   0.115   5.704
 4851SOL    HW119402   0.097   0.175   5.748
 4851SOL    HW219403   0.127   0.110   5.615
 4851SOL     MW19404   0.147   0.121   5.699
 4852SOL     OW19405   5.425   0.513   3.773
 4852SOL    HW119406   5.488   0.448   3.741
 4852SOL    HW219407   5.366   0.527   3.700
 4852SOL     MW19408   5.426   0.507   3.761
 4853SOL     OW19409   2.329   4.841   4.717
 4853SOL    HW119410   2.281   4.884   4.645
 4853SOL    HW219411   2.271   4.848   4.792
 4853SOL     MW19412   2.317   4.847   4.717
 4854SOL     OW19413   4.530   5.528   2.945
 4854SOL    HW119414   4.436   5.545   2.929
 4854SOL    HW219415   4.551   5.581   3.021
 4854SOL     MW19416   4.521   5.536   2.952
 4855SOL     OW19417   0.640   5.818   3.018
 4855SOL    HW119418   0.656   5.726   2.995
 4855SOL    HW219419   0.552   5.819   3.054
 4855SOL     MW19420   0.632   5.807   3.020
 4856SOL     OW19421   3.565   5.155   1.022
 4856SOL    HW119422   3.644   5.100   1.029
 4856SOL    HW219423   3.569   5.211   1.099
 4856SOL     MW19424   3.575   5.155   1.032
 4857SOL     OW19425   1.653   0.904   4.176
 4857SOL    HW119426   1.606   0.875   4.255
 4857SOL    HW219427   1.737   0.861   4.182
 4857SOL     MW19428   1.657   0.896   4.186
 4858SOL     OW19429   5.549   0.257   5.689
 4858SOL    HW119430   5.644   0.252   5.672
 4858SOL    HW219431   5.526   0.345   5.666
 4858SOL     MW19432   5.558   0.266   5.684
 4859SOL     OW19433   6.029   2.839   2.388
 4859SOL    HW119434   6.110   2.883   2.360
 4859SOL    HW219435   5.997   2.891   2.460
 4859SOL     MW19436   6.035   2.850   2.393
 4860SOL     OW19437   3.122   5.301   1.359
 4860SOL    HW119438   3.186   5.373   1.365
 4860SOL    HW219439   3.076   5.318   1.278
 4860SOL     MW19440   3.124   5.312   1.350
 4861SOL     OW19441   1.841   2.209   1.550
 4861SOL    HW119442   1.933   2.198   1.522
 4861SOL    HW219443   1.812   2.120   1.566
 4861SOL     MW19444   1.849   2.197   1.548
 4862SOL     OW19445   2.230   1.471   2.690
 4862SOL    HW119446   2.281   1.551   2.709
 4862SOL    HW219447   2.159   1.502   2.634
 4862SOL     MW19448   2.228   1.485   2.686
 4863SOL     OW19449   5.203   2.187   3.358
 4863SOL    HW119450   5.153   2.268   3.343
 4863SOL    HW219451   5.179   2.161   3.446
 4863SOL     MW19452   5.194   2.193   3.366
 4864SOL     OW19453   3.047   0.919   3.625
 4864SOL    HW119454   2.965   0.941   3.669
 4864SOL    HW219455   3.033   0.831   3.591
 4864SOL     MW19456   3.035   0.911   3.626
 4865SOL     OW19457   6.006   0.046   3.372
 4865SOL    HW119458   6.055  -0.031   3.342
 4865SOL    HW219459   6.040   0.062   3.459
 4865SOL     MW19460   6.016   0.038   3.379
 4866SOL     OW19461   3.126   1.786   4.573
 4866SOL    HW119462   3.106   1.714   4.634
 4866SOL    HW219463   3.213   1.765   4.540
 4866SOL     MW19464   3.134   1.775   4.577
 4867SOL     OW19465   2.169   1.377   1.592
 4867SOL    HW119466   2.256   1.343   1.612
 4867SOL    HW219467   2.109   1.313   1.630
 4867SOL     MW19468   2.172   1.366   1.599
 4868SOL     OW19469   2.785   1.845   4.589
 4868SOL    HW119470   2.864   1.899   4.601
 4868SOL    HW219471   2.815   1.769   4.541
 4868SOL     MW19472   2.798   1.843   4.585
 4869SOL     OW19473   0.682   2.067   3.785
 4869SOL    HW119474   0.647   1.979   3.771
 4869SOL    HW219475   0.764   2.068   3.738
 4869SOL     MW19476   0.688   2.056   3.778
 4870SOL     OW19477   0.808   3.101   4.329
 4870SOL    HW119478   0.723   3.136   4.359
 4870SOL    HW219479   0.796   3.007   4.329
 4870SOL     MW19480   0.796   3.094   4.333
 4871SOL     OW19481   3.057   5.179   0.643
 4871SOL    HW119482   2.977   5.167   0.694
 4871SOL    HW219483   3.028   5.178   0.552
 4871SOL     MW19484   3.044   5.177   0.638
 4872SOL     OW19485   2.766   4.698   5.388
 4872SOL    HW119486   2.712   4.636   5.338
 4872SOL    HW219487   2.724   4.701   5.474
 4872SOL     MW19488   2.754   4.691   5.392
 4873SOL     OW19489   4.727   5.012   4.483
 4873SOL    HW119490   4.723   5.018   4.579
 4873SOL    HW219491   4.684   4.930   4.463
 4873SOL     MW19492   4.721   5.003   4.492
 4874SOL     OW19493   4.380   1.191   0.612
 4874SOL    HW119494   4.355   1.255   0.544
 4874SOL    HW219495   4.350   1.230   0.693
 4874SOL     MW19496   4.374   1.204   0.613
 4875SOL     OW19497   3.000   5.701   2.508
 4875SOL    HW119498   3.095   5.703   2.494
 4875SOL    HW219499   2.968   5.781   2.467
 4875SOL     MW19500   3.007   5.711   2.502
 4876SOL     OW19501   2.383   3.684   1.382
 4876SOL    HW119502   2.396   3.649   1.471
 4876SOL    HW219503   2.471   3.700   1.351
 4876SOL     MW19504   2.395   3.681   1.389
 4877SOL     OW19505   1.370   6.026   4.703
 4877SOL    HW119506   1.439   6.041   4.637
 4877SOL    HW219507   1.400   6.074   4.779
 4877SOL     MW19508   1.382   6.033   4.704
 4878SOL     OW19509   5.801   2.392   1.497
 4878SOL    HW119510   5.895   2.375   1.501
 4878SOL    HW219511   5.790   2.445   1.419
 4878SOL     MW19512   5.811   2.396   1.488
 4879SOL     OW19513   0.044   3.888   2.154
 4879SOL    HW119514   0.139   3.876   2.159
 4879SOL    HW219515   0.008   3.806   2.186
 4879SOL     MW19516   0.051   3.877   2.158
 4880SOL     OW19517   0.135   2.675   4.332
 4880SOL    HW119518   0.190   2.701   4.406
 4880SOL    HW219519   0.145   2.747   4.270
 4880SOL     MW19520   0.143   2.687   4.333
 4881SOL     OW19521   1.045   5.065   4.376
 4881SOL    HW119522   0.959   5.083   4.414
 4881SOL    HW219523   1.105   5.073   4.449
 4881SOL     MW19524   1.042   5.068   4.389
 4882SOL     OW19525   0.832   3.533   4.145
 4882SOL    HW119526   0.757   3.576   4.103
 4882SOL    HW219527   0.810   3.533   4.237
 4882SOL     MW19528   0.820   3.538   4.151
 4883SOL     OW19529   4.219   2.882   3.651
 4883SOL    HW119530   4.182   2.970   3.637
 4883SOL    HW219531   4.173   2.828   3.589
 4883SOL     MW19532   4.209   2.887   3.642
 4884SOL     OW19533   3.154   4.158   0.323
 4884SOL    HW119534   3.133   4.133   0.413
 4884SOL    HW219535   3.100   4.101   0.270
 4884SOL     MW19536   3.145   4.148   0.328
 4885SOL     OW19537   4.415   3.250   3.473
 4885SOL    HW119538   4.401   3.226   3.381
 4885SOL    HW219539   4.468   3.329   3.468
 4885SOL     MW19540   4.420   3.256   3.461
 4886SOL     OW19541   3.033   2.593   0.930
 4886SOL    HW119542   3.072   2.677   0.959
 4886SOL    HW219543   3.108   2.541   0.905
 4886SOL     MW19544   3.047   2.597   0.931
 4887SOL     OW19545   1.953   3.167   3.806
 4887SOL    HW119546   2.039   3.211   3.800
 4887SOL    HW219547   1.936   3.138   3.717
 4887SOL     MW19548   1.962   3.169   3.795
 4888SOL     OW19549   5.203   2.252   0.955
 4888SOL    HW119550   5.163   2.336   0.980
 4888SOL    HW219551   5.273   2.240   1.017
 4888SOL     MW19552   5.206   2.261   0.965
 4889SOL     OW19553   2.216   4.598   5.649
 4889SOL    HW119554   2.243   4.676   5.700
 4889SOL    HW219555   2.256   4.612   5.564
 4889SOL     MW19556   2.224   4.609   5.645
 4890SOL     OW19557   2.306   1.453   5.525
 4890SOL    HW119558   2.266   1.401   5.594
 4890SOL    HW219559   2.274   1.414   5.444
 4890SOL     MW19560   2.297   1.442   5.524
 4891SOL     OW19561   2.538   5.793   5.605
 4891SOL    HW119562   2.619   5.837   5.577
 4891SOL    HW219563   2.502   5.757   5.525
 4891SOL     MW19564   2.544   5.795   5.592
 4892SOL     OW19565   4.125   5.496   3.877
 4892SOL    HW119566   4.168   5.446   3.807
 4892SOL    HW219567   4.120   5.584   3.842
 4892SOL     MW19568   4.130   5.500   3.864
 4893SOL     OW19569   4.365   0.469   3.934
 4893SOL    HW119570   4.359   0.563   3.913
 4893SOL    HW219571   4.384   0.468   4.027
 4893SOL     MW19572   4.366   0.481   3.942
 4894SOL     OW19573   5.402   5.024   4.117
 4894SOL    HW119574   5.451   4.958   4.168
 4894SOL    HW219575   5.427   5.007   4.027
 4894SOL     MW19576   5.411   5.013   4.112
 4895SOL     OW19577   4.710   1.886   1.652
 4895SOL    HW119578   4.711   1.834   1.571
 4895SOL    HW219579   4.797   1.922   1.658
 4895SOL     MW19580   4.720   1.884   1.643
 4896SOL     OW19581   0.333   5.977   5.689
 4896SOL    HW119582   0.428   5.974   5.672
 4896SOL    HW219583   0.327   6.004   5.780
 4896SOL     MW19584   0.344   5.980   5.698
 4897SOL     OW19585   0.179   5.094   3.266
 4897SOL    HW119586   0.205   5.185   3.282
 4897SOL    HW219587   0.194   5.051   3.349
 4897SOL     MW19588   0.184   5.100   3.278
 4898SOL     OW19589   5.241   2.367   0.228
 4898SOL    HW119590   5.268   2.311   0.301
 4898SOL    HW219591   5.208   2.307   0.163
 4898SOL     MW19592   5.240   2.353   0.229
 4899SOL     OW19593   4.829   1.078   0.134
 4899SOL    HW119594   4.870   1.123   0.060
 4899SOL    HW219595   4.838   1.139   0.206
 4899SOL     MW19596   4.835   1.090   0.134
 4900SOL     OW19597   3.611   3.002   1.398
 4900SOL    HW119598   3.601   3.096   1.415
 4900SOL    HW219599   3.625   2.997   1.304
 4900SOL     MW19600   3.611   3.013   1.389
 4901SOL     OW19601   5.562   3.449   6.044
 4901SOL    HW119602   5.492   3.476   5.984
 4901SOL    HW219603   5.536   3.487   6.127
 4901SOL     MW19604   5.550   3.456   6.047
 4902SOL     OW19605   0.900   0.711   4.329
 4902SOL    HW119606   0.947   0.721   4.413
 4902SOL    HW219607   0.931   0.629   4.294
 4902SOL     MW19608   0.909   0.703   4.335
 4903SOL     OW19609   4.520   2.846   5.893
 4903SOL    HW119610   4.540   2.754   5.874
 4903SOL    HW219611   4.543   2.857   5.984
 4903SOL     MW19612   4.525   2.836   5.901
 4904SOL     OW19613   3.055   4.558   5.536
 4904SOL    HW119614   3.081   4.467   5.519
 4904SOL    HW219615   3.007   4.584   5.458
 4904SOL     MW19616   3.052   4.550   5.525
 4905SOL     OW19617   2.030   3.288   4.843
 4905SOL    HW119618   2.098   3.250   4.899
 4905SOL    HW219619   2.074   3.358   4.796
 4905SOL     MW19620   2.043   3.291   4.844
 4906SOL     OW19621   1.331   3.502   4.480
 4906SOL    HW119622   1.308   3.418   4.521
 4906SOL    HW219623   1.310   3.490   4.388
 4906SOL     MW19624   1.325   3.491   4.474
 4907SOL     OW19625   2.898   5.783   4.755
 4907SOL    HW119626   2.919   5.872   4.724
 4907SOL    HW219627   2.812   5.766   4.719
 4907SOL     MW19628   2.890   5.792   4.747
 4908SOL     OW19629   1.087   5.897   3.244
 4908SOL    HW119630   1.176   5.926   3.223
 4908SOL    HW219631   1.044   5.890   3.160
 4908SOL     MW19632   1.093   5.899   3.232
 4909SOL     OW19633   4.132   2.081   4.175
 4909SOL    HW119634   4.143   1.987   4.194
 4909SOL    HW219635   4.123   2.121   4.261
 4909SOL     MW19636   4.132   2.074   4.188
 4910SOL     OW19637   0.316   3.709   5.645
 4910SOL    HW119638   0.330   3.630   5.591
 4910SOL    HW219639   0.379   3.701   5.715
 4910SOL     MW19640   0.325   3.699   5.646
 4911SOL     OW19641   1.544   5.475   5.643
 4911SOL    HW119642   1.601   5.419   5.697
 4911SOL    HW219643   1.598   5.550   5.623
 4911SOL     MW19644   1.558   5.477   5.647
 4912SOL     OW19645   4.492   1.537   4.221
 4912SOL    HW119646   4.434   1.460   4.220
 4912SOL    HW219647   4.437   1.608   4.189
 4912SOL     MW19648   4.478   1.536   4.217
 4913SOL     OW19649   5.263   2.004   4.572
 4913SOL    HW119650   5.257   2.051   4.488
 4913SOL    HW219651   5.183   1.953   4.576
 4913SOL     MW19652   5.253   2.003   4.562
 4914SOL     OW19653   3.532   1.137   3.205
 4914SOL    HW119654   3.597   1.089   3.257
 4914SOL    HW219655   3.450   1.095   3.227
 4914SOL     MW19656   3.530   1.126   3.214
 4915SOL     OW19657   3.359   0.334   5.786
 4915SOL    HW119658   3.438   0.299   5.827
 4915SOL    HW219659   3.373   0.321   5.693
 4915SOL     MW19660   3.370   0.328   5.780
 4916SOL     OW19661   4.483   1.776   1.386
 4916SOL    HW119662   4.471   1.818   1.300
 4916SOL    HW219663   4.521   1.843   1.440
 4916SOL     MW19664   4.486   1.789   1.382
 4917SOL     OW19665   1.759   1.791   4.057
 4917SOL    HW119666   1.749   1.748   4.143
 4917SOL    HW219667   1.811   1.730   4.006
 4917SOL     MW19668   1.764   1.778   4.062
 4918SOL     OW19669   0.418   1.398   3.241
 4918SOL    HW119670   0.407   1.436   3.329
 4918SOL    HW219671   0.342   1.430   3.193
 4918SOL     MW19672   0.407   1.406   3.246
 4919SOL     OW19673   2.425   2.725   2.905
 4919SOL    HW119674   2.510   2.683   2.922
 4919SOL    HW219675   2.401   2.764   2.987
 4919SOL     MW19676   2.432   2.724   2.917
 4920SOL     OW19677   1.886   4.699   5.308
 4920SOL    HW119678   1.841   4.783   5.292
 4920SOL    HW219679   1.917   4.706   5.397
 4920SOL     MW19680   1.884   4.710   5.316
 4921SOL     OW19681   2.421   0.872   2.330
 4921SOL    HW119682   2.470   0.813   2.272
 4921SOL    HW219683   2.486   0.903   2.392
 4921SOL     MW19684   2.435   0.868   2.330
 4922SOL     OW19685   3.134   0.832   4.693
 4922SOL    HW119686   3.075   0.818   4.767
 4922SOL    HW219687   3.108   0.916   4.657
 4922SOL     MW19688   3.124   0.841   4.698
 4923SOL     OW19689   6.102   5.470   3.845
 4923SOL    HW119690   6.008   5.452   3.855
 4923SOL    HW219691   6.107   5.519   3.763
 4923SOL     MW19692   6.091   5.474   3.836
 4924SOL     OW19693   1.919   5.678   5.184
 4924SOL    HW119694   1.832   5.718   5.171
 4924SOL    HW219695   1.919   5.605   5.124
 4924SOL     MW19696   1.908   5.674   5.175
 4925SOL     OW19697   5.241   5.063   2.204
 4925SOL    HW119698   5.218   4.997   2.139
 4925SOL    HW219699   5.196   5.142   2.175
 4925SOL     MW19700   5.233   5.065   2.193
 4926SOL     OW19701   2.711   1.991   0.028
 4926SOL    HW119702   2.632   2.043   0.051
 4926SOL    HW219703   2.769   2.004   0.102
 4926SOL     MW19704   2.708   1.999   0.040
 4927SOL     OW19705   0.173   1.660   5.156
 4927SOL    HW119706   0.092   1.683   5.202
 4927SOL    HW219707   0.177   1.719   5.082
 4927SOL     MW19708   0.164   1.670   5.153
 4928SOL     OW19709   5.875   2.744   0.849
 4928SOL    HW119710   5.850   2.832   0.879
 4928SOL    HW219711   5.890   2.754   0.756
 4928SOL     MW19712   5.873   2.756   0.842
 4929SOL     OW19713   2.934   1.633   0.107
 4929SOL    HW119714   2.965   1.609   0.195
 4929SOL    HW219715   2.846   1.597   0.103
 4929SOL     MW19716   2.927   1.626   0.118
 4930SOL     OW19717   1.603   3.049   2.985
 4930SOL    HW119718   1.699   3.051   2.984
 4930SOL    HW219719   1.580   3.034   2.894
 4930SOL     MW19720   1.612   3.048   2.974
 4931SOL     OW19721   3.881   3.453   1.239
 4931SOL    HW119722   3.809   3.425   1.297
 4931SOL    HW219723   3.896   3.378   1.184
 4931SOL     MW19724   3.874   3.441   1.240
 4932SOL     OW19725   4.527   5.923   2.766
 4932SOL    HW119726   4.607   5.877   2.740
 4932SOL    HW219727   4.532   5.927   2.860
 4932SOL     MW19728   4.537   5.918   2.774
 4933SOL     OW19729   5.450   2.537   5.619
 4933SOL    HW119730   5.545   2.551   5.625
 4933SOL    HW219731   5.441   2.448   5.585
 4933SOL     MW19732   5.460   2.528   5.616
 4934SOL     OW19733   4.319   4.411   0.006
 4934SOL    HW119734   4.360   4.401   0.092
 4934SOL    HW219735   4.250   4.346   0.005
 4934SOL     MW19736   4.316   4.402   0.016
 4935SOL     OW19737   4.361   4.123   0.024
 4935SOL    HW119738   4.429   4.164   0.078
 4935SOL    HW219739   4.388   4.032   0.018
 4935SOL     MW19740   4.373   4.117   0.030
 4936SOL     OW19741   2.597   2.436   0.386
 4936SOL    HW119742   2.631   2.388   0.462
 4936SOL    HW219743   2.545   2.372   0.339
 4936SOL     MW19744   2.595   2.422   0.390
 4937SOL     OW19745   0.792   4.316   1.311
 4937SOL    HW119746   0.750   4.390   1.355
 4937SOL    HW219747   0.801   4.344   1.221
 4937SOL     MW19748   0.788   4.328   1.305
 4938SOL     OW19749   3.448   0.966   1.524
 4938SOL    HW119750   3.438   0.930   1.613
 4938SOL    HW219751   3.417   1.056   1.532
 4938SOL     MW19752   3.443   0.973   1.536
 4939SOL     OW19753   4.636   3.769   5.650
 4939SOL    HW119754   4.545   3.753   5.621
 4939SOL    HW219755   4.626   3.804   5.738
 4939SOL     MW19756   4.624   3.771   5.657
 4940SOL     OW19757   0.291   5.698   2.923
 4940SOL    HW119758   0.376   5.693   2.879
 4940SOL    HW219759   0.313   5.698   3.015
 4940SOL     MW19760   0.304   5.698   2.929
 4941SOL     OW19761   3.198   1.030   4.444
 4941SOL    HW119762   3.215   0.979   4.523
 4941SOL    HW219763   3.172   0.966   4.379
 4941SOL     MW19764   3.197   1.016   4.446
 4942SOL     OW19765   6.080   3.698   5.225
 4942SOL    HW119766   6.097   3.790   5.202
 4942SOL    HW219767   6.047   3.702   5.314
 4942SOL     MW19768   6.078   3.709   5.232
 4943SOL     OW19769   0.549   3.284   1.092
 4943SOL    HW119770   0.585   3.292   1.003
 4943SOL    HW219771   0.621   3.310   1.148
 4943SOL     MW19772   0.562   3.288   1.087
 4944SOL     OW19773   1.883   0.761   2.497
 4944SOL    HW119774   1.796   0.760   2.539
 4944SOL    HW219775   1.911   0.670   2.499
 4944SOL     MW19776   1.875   0.750   2.502
 4945SOL     OW19777   0.070   0.400   4.472
 4945SOL    HW119778   0.131   0.336   4.434
 4945SOL    HW219779   0.100   0.410   4.562
 4945SOL     MW19780   0.081   0.394   4.478
 4946SOL     OW19781   4.267   2.116   3.829
 4946SOL    HW119782   4.252   2.022   3.836
 4946SOL    HW219783   4.258   2.134   3.736
 4946SOL     MW19784   4.264   2.107   3.819
 4947SOL     OW19785   4.815   3.909   3.111
 4947SOL    HW119786   4.731   3.913   3.065
 4947SOL    HW219787   4.792   3.921   3.202
 4947SOL     MW19788   4.802   3.911   3.116
 4948SOL     OW19789   5.362   4.249   0.772
 4948SOL    HW119790   5.418   4.326   0.756
 4948SOL    HW219791   5.314   4.239   0.690
 4948SOL     MW19792   5.363   4.258   0.760
 4949SOL     OW19793   3.467   5.905   1.498
 4949SOL    HW119794   3.435   5.912   1.589
 4949SOL    HW219795   3.524   5.829   1.500
 4949SOL     MW19796   3.470   5.897   1.510
 4950SOL     OW19797   3.019   0.445   5.419
 4950SOL    HW119798   3.007   0.475   5.510
 4950SOL    HW219799   2.964   0.503   5.368
 4950SOL     MW19800   3.011   0.456   5.424
 4951SOL     OW19801   3.827   2.194   4.096
 4951SOL    HW119802   3.756   2.161   4.152
 4951SOL    HW219803   3.907   2.169   4.142
 4951SOL     MW19804   3.828   2.187   4.108
 4952SOL     OW19805   1.712   2.771   3.984
 4952SOL    HW119806   1.638   2.715   3.960
 4952SOL    HW219807   1.738   2.811   3.903
 4952SOL     MW19808   1.706   2.769   3.972
 4953SOL     OW19809   0.557   3.824   2.500
 4953SOL    HW119810   0.505   3.888   2.452
 4953SOL    HW219811   0.499   3.792   2.568
 4953SOL     MW19812   0.544   3.828   2.502
 4954SOL     OW19813   1.950   0.132   3.485
 4954SOL    HW119814   1.907   0.061   3.533
 4954SOL    HW219815   1.896   0.146   3.409
 4954SOL     MW19816   1.939   0.125   3.482
 4955SOL     OW19817   5.766   4.341   4.523
 4955SOL    HW119818   5.765   4.247   4.543
 4955SOL    HW219819   5.857   4.366   4.531
 4955SOL     MW19820   5.776   4.332   4.526
 4956SOL     OW19821   4.311   2.085   1.262
 4956SOL    HW119822   4.277   1.995   1.265
 4956SOL    HW219823   4.233   2.139   1.255
 4956SOL     MW19824   4.297   2.080   1.261
 4957SOL     OW19825   5.746   5.712   4.466
 4957SOL    HW119826   5.686   5.784   4.444
 4957SOL    HW219827   5.782   5.685   4.382
 4957SOL     MW19828   5.743   5.717   4.453
 4958SOL     OW19829   4.554   4.181   0.642
 4958SOL    HW119830   4.485   4.230   0.595
 4958SOL    HW219831   4.530   4.190   0.734
 4958SOL     MW19832   4.543   4.188   0.647
 4959SOL     OW19833   4.234   4.919   4.144
 4959SOL    HW119834   4.308   4.879   4.098
 4959SOL    HW219835   4.259   4.916   4.235
 4959SOL     MW19836   4.246   4.914   4.149
 4960SOL     OW19837   3.441   4.942   0.176
 4960SOL    HW119838   3.430   4.952   0.271
 4960SOL    HW219839   3.404   4.857   0.157
 4960SOL     MW19840   3.435   4.933   0.186
 4961SOL     OW19841   5.898   3.063   4.660
 4961SOL    HW119842   5.903   3.159   4.660
 4961SOL    HW219843   5.882   3.041   4.569
 4961SOL     MW19844   5.897   3.072   4.649
 4962SOL     OW19845   2.537   4.151   0.232
 4962SOL    HW119846   2.581   4.108   0.306
 4962SOL    HW219847   2.483   4.218   0.271
 4962SOL     MW19848   2.536   4.153   0.245
 4963SOL     OW19849   1.646   1.085   4.375
 4963SOL    HW119850   1.570   1.033   4.348
 4963SOL    HW219851   1.720   1.031   4.353
 4963SOL     MW19852   1.645   1.073   4.369
 4964SOL     OW19853   3.745   1.333   0.455
 4964SOL    HW119854   3.721   1.310   0.365
 4964SOL    HW219855   3.840   1.344   0.452
 4964SOL     MW19856   3.754   1.332   0.444
 4965SOL     OW19857   3.327   1.701   1.531
 4965SOL    HW119858   3.373   1.775   1.572
 4965SOL    HW219859   3.335   1.718   1.438
 4965SOL     MW19860   3.333   1.712   1.525
 4966SOL     OW19861   3.577   3.136   0.651
 4966SOL    HW119862   3.639   3.090   0.593
 4966SOL    HW219863   3.631   3.194   0.702
 4966SOL     MW19864   3.591   3.137   0.650
 4967SOL     OW19865   4.352   3.829   5.580
 4967SOL    HW119866   4.441   3.856   5.604
 4967SOL    HW219867   4.335   3.753   5.634
 4967SOL     MW19868   4.361   3.823   5.589
 4968SOL     OW19869   5.459   5.940   4.356
 4968SOL    HW119870   5.500   6.000   4.419
 4968SOL    HW219871   5.412   5.997   4.297
 4968SOL     MW19872   5.459   5.954   4.356
 4969SOL     OW19873   5.510   4.078   0.523
 4969SOL    HW119874   5.488   3.988   0.499
 4969SOL    HW219875   5.467   4.091   0.606
 4969SOL     MW19876   5.502   4.069   0.530
 4970SOL     OW19877   5.245   4.928   1.773
 4970SOL    HW119878   5.192   4.946   1.695
 4970SOL    HW219879   5.182   4.922   1.844
 4970SOL     MW19880   5.231   4.929   1.772
 4971SOL     OW19881   1.598   2.415   4.934
 4971SOL    HW119882   1.693   2.431   4.923
 4971SOL    HW219883   1.563   2.422   4.847
 4971SOL     MW19884   1.606   2.418   4.923
 4972SOL     OW19885   2.974   0.149   4.931
 4972SOL    HW119886   2.892   0.135   4.883
 4972SOL    HW219887   2.949   0.142   5.022
 4972SOL     MW19888   2.961   0.146   4.936
 4973SOL     OW19889   4.130   4.205   0.831
 4973SOL    HW119890   4.118   4.298   0.811
 4973SOL    HW219891   4.139   4.163   0.746
 4973SOL     MW19892   4.130   4.211   0.818
 4974SOL     OW19893   2.574   5.552   3.288
 4974SOL    HW119894   2.501   5.611   3.267
 4974SOL    HW219895   2.551   5.515   3.372
 4974SOL     MW19896   2.562   5.555   3.295
 4975SOL     OW19897   4.652   0.949   4.656
 4975SOL    HW119898   4.704   0.970   4.734
 4975SOL    HW219899   4.562   0.956   4.686
 4975SOL     MW19900   4.648   0.952   4.669
 4976SOL     OW19901   3.653   3.948   1.342
 4976SOL    HW119902   3.720   3.889   1.377
 4976SOL    HW219903   3.620   3.903   1.265
 4976SOL     MW19904   3.657   3.936   1.337
 4977SOL     OW19905   0.088   6.055   4.374
 4977SOL    HW119906  -0.007   6.045   4.361
 4977SOL    HW219907   0.099   6.048   4.468
 4977SOL     MW19908   0.078   6.053   4.384
 4978SOL     OW19909   3.634   2.248   1.151
 4978SOL    HW119910   3.548   2.290   1.163
 4978SOL    HW219911   3.623   2.193   1.075
 4978SOL     MW19912   3.622   2.246   1.143
 4979SOL     OW19913   1.181   3.621   5.263
 4979SOL    HW119914   1.185   3.713   5.290
 4979SOL    HW219915   1.222   3.620   5.177
 4979SOL     MW19916   1.187   3.632   5.256
 4980SOL     OW19917   3.724   3.075   3.823
 4980SOL    HW119918   3.810   3.114   3.844
 4980SOL    HW219919   3.691   3.127   3.751
 4980SOL     MW19920   3.731   3.086   3.817
 4981SOL     OW19921   5.806   0.923   5.102
 4981SOL    HW119922   5.852   0.854   5.053
 4981SOL    HW219923   5.873   0.963   5.155
 4981SOL     MW19924   5.819   0.919   5.102
 4982SOL     OW19925   5.828   2.755   1.235
 4982SOL    HW119926   5.844   2.784   1.325
 4982SOL    HW219927   5.790   2.831   1.193
 4982SOL     MW19928   5.825   2.768   1.241
 4983SOL     OW19929   3.607   4.260   3.246
 4983SOL    HW119930   3.536   4.196   3.245
 4983SOL    HW219931   3.635   4.264   3.336
 4983SOL     MW19932   3.602   4.252   3.256
 4984SOL     OW19933   5.686   6.028   2.496
 4984SOL    HW119934   5.628   5.996   2.426
 4984SOL    HW219935   5.687   5.958   2.560
 4984SOL     MW19936   5.679   6.016   2.495
 4985SOL     OW19937   5.641   4.073   2.363
 4985SOL    HW119938   5.737   4.073   2.365
 4985SOL    HW219939   5.620   4.097   2.273
 4985SOL     MW19940   5.650   4.076   2.352
 4986SOL     OW19941  -0.024   3.288   4.993
 4986SOL    HW119942   0.040   3.236   5.042
 4986SOL    HW219943   0.001   3.277   4.902
 4986SOL     MW19944  -0.014   3.280   4.988
 4987SOL     OW19945   3.733   0.725   5.762
 4987SOL    HW119946   3.732   0.637   5.802
 4987SOL    HW219947   3.667   0.773   5.810
 4987SOL     MW19948   3.725   0.720   5.773
 4988SOL     OW19949   4.005   0.071   0.771
 4988SOL    HW119950   3.919   0.079   0.728
 4988SOL    HW219951   3.997  -0.009   0.822
 4988SOL     MW19952   3.993   0.062   0.772
 4989SOL     OW19953   2.120   0.658   1.139
 4989SOL    HW119954   2.104   0.600   1.064
 4989SOL    HW219955   2.129   0.744   1.100
 4989SOL     MW19956   2.119   0.661   1.125
 4990SOL     OW19957   3.254   5.299   0.638
 4990SOL    HW119958   3.196   5.239   0.591
 4990SOL    HW219959   3.259   5.376   0.584
 4990SOL     MW19960   3.248   5.301   0.626
 4991SOL     OW19961   0.329   1.525   0.799
 4991SOL    HW119962   0.363   1.585   0.866
 4991SOL    HW219963   0.328   1.440   0.841
 4991SOL     MW19964   0.333   1.522   0.812
 4992SOL     OW19965   5.374   1.305   2.477
 4992SOL    HW119966   5.404   1.284   2.566
 4992SOL    HW219967   5.332   1.225   2.448
 4992SOL     MW19968   5.373   1.293   2.484
 4993SOL     OW19969   2.185   5.653   2.112
 4993SOL    HW119970   2.160   5.570   2.153
 4993SOL    HW219971   2.178   5.636   2.019
 4993SOL     MW19972   2.181   5.641   2.106
 4994SOL     OW19973   5.548   0.527   4.539
 4994SOL    HW119974   5.609   0.467   4.583
 4994SOL    HW219975   5.551   0.501   4.448
 4994SOL     MW19976   5.556   0.517   4.534
 4995SOL     OW19977   5.321   2.045   1.643
 4995SOL    HW119978   5.393   2.011   1.697
 4995SOL    HW219979   5.266   1.970   1.627
 4995SOL     MW19980   5.323   2.032   1.648
 4996SOL     OW19981   5.972   2.605   3.297
 4996SOL    HW119982   5.925   2.651   3.226
 4996SOL    HW219983   5.980   2.669   3.366
 4996SOL     MW19984   5.967   2.618   3.296
 4997SOL     OW19985   4.241   1.352   4.700
 4997SOL    HW119986   4.291   1.376   4.778
 4997SOL    HW219987   4.268   1.262   4.682
 4997SOL     MW19988   4.250   1.344   4.707
 4998SOL     OW19989   2.893   5.592   4.910
 4998SOL    HW119990   2.901   5.598   5.006
 4998SOL    HW219991   2.801   5.578   4.895
 4998SOL     MW19992   2.883   5.591   4.920
 4999SOL     OW19993   4.452   3.373   1.191
 4999SOL    HW119994   4.396   3.438   1.233
 4999SOL    HW219995   4.449   3.298   1.249
 4999SOL     MW19996   4.445   3.372   1.203
 5000SOL     OW19997   1.592   1.185   0.049
 5000SOL    HW119998   1.527   1.148   0.109
 5000SOL    HW219999   1.672   1.137   0.068
 5000SOL     MW20000   1.594   1.175   0.059
 5001SOL     OW20001   6.052   4.472   5.472
 5001SOL    HW120002   6.131   4.518   5.443
 5001SOL    HW220003   6.068   4.453   5.564
 5001SOL     MW20004   6.063   4.475   5.480
 5002SOL     OW20005   0.521   4.703   4.488
 5002SOL    HW120006   0.568   4.786   4.477
 5002SOL    HW220007   0.476   4.690   4.405
 5002SOL     MW20008   0.521   4.712   4.477
 5003SOL     OW20009   4.596   1.892   5.263
 5003SOL    HW120010   4.587   1.940   5.346
 5003SOL    HW220011   4.670   1.933   5.220
 5003SOL     MW20012   4.604   1.902   5.268
 5004SOL     OW20013   0.887   0.320   3.127
 5004SOL    HW120014   0.875   0.395   3.186
 5004SOL    HW220015   0.818   0.260   3.150
 5004SOL     MW20016   0.877   0.322   3.137
 5005SOL     OW20017   5.929   1.460   1.447
 5005SOL    HW120018   5.896   1.389   1.391
 5005SOL    HW220019   5.918   1.426   1.535
 5005SOL     MW20020   5.924   1.447   1.451
 5006SOL     OW20021   6.069   4.716   0.634
 5006SOL    HW120022   6.157   4.756   0.637
 5006SOL    HW220023   6.079   4.643   0.574
 5006SOL     MW20024   6.081   4.713   0.627
 5007SOL     OW20025   0.487   5.529   0.360
 5007SOL    HW120026   0.434   5.458   0.396
 5007SOL    HW220027   0.474   5.523   0.266
 5007SOL     MW20028   0.479   5.520   0.353
 5008SOL     OW20029   3.305   4.354   3.749
 5008SOL    HW120030   3.380   4.407   3.721
 5008SOL    HW220031   3.272   4.400   3.826
 5008SOL     MW20032   3.310   4.366   3.755
 5009SOL     OW20033   3.505   2.990   3.379
 5009SOL    HW120034   3.550   3.071   3.351
 5009SOL    HW220035   3.477   2.951   3.297
 5009SOL     MW20036   3.507   2.995   3.366
 5010SOL     OW20037   3.638   1.288   1.412
 5010SOL    HW120038   3.721   1.299   1.458
 5010SOL    HW220039   3.662   1.283   1.320
 5010SOL     MW20040   3.651   1.288   1.406
 5011SOL     OW20041   2.237   2.209   1.744
 5011SOL    HW120042   2.164   2.214   1.808
 5011SOL    HW220043   2.195   2.183   1.663
 5011SOL     MW20044   2.223   2.207   1.743
 5012SOL     OW20045   2.463   0.064   5.345
 5012SOL    HW120046   2.486  -0.030   5.344
 5012SOL    HW220047   2.503   0.099   5.266
 5012SOL     MW20048   2.471   0.056   5.336
 5013SOL     OW20049   0.212   2.523   3.406
 5013SOL    HW120050   0.212   2.491   3.497
 5013SOL    HW220051   0.153   2.464   3.362
 5013SOL     MW20052   0.205   2.512   3.412
 5014SOL     OW20053   2.815   5.963   0.437
 5014SOL    HW120054   2.850   6.027   0.500
 5014SOL    HW220055   2.762   6.015   0.379
 5014SOL     MW20056   2.813   5.977   0.438
 5015SOL     OW20057   2.229   2.738   4.077
 5015SOL    HW120058   2.245   2.777   3.991
 5015SOL    HW220059   2.148   2.778   4.106
 5015SOL     MW20060   2.221   2.748   4.070
 5016SOL     OW20061   4.271   2.202   5.312
 5016SOL    HW120062   4.250   2.117   5.273
 5016SOL    HW220063   4.279   2.184   5.405
 5016SOL     MW20064   4.269   2.189   5.318
 5017SOL     OW20065   1.201   1.419   2.034
 5017SOL    HW120066   1.135   1.418   2.105
 5017SOL    HW220067   1.283   1.405   2.079
 5017SOL     MW20068   1.202   1.417   2.048
 5018SOL     OW20069   1.902   4.277   0.596
 5018SOL    HW120070   1.982   4.322   0.564
 5018SOL    HW220071   1.913   4.274   0.690
 5018SOL     MW20072   1.913   4.282   0.603
 5019SOL     OW20073   4.487   0.539   6.017
 5019SOL    HW120074   4.480   0.443   6.026
 5019SOL    HW220075   4.463   0.555   5.926
 5019SOL     MW20076   4.483   0.529   6.007
 5020SOL     OW20077   6.024   1.444   0.530
 5020SOL    HW120078   5.971   1.384   0.583
 5020SOL    HW220079   6.083   1.386   0.482
 5020SOL     MW20080   6.025   1.429   0.531
 5021SOL     OW20081   5.267   4.515   5.815
 5021SOL    HW120082   5.308   4.588   5.862
 5021SOL    HW220083   5.174   4.526   5.831
 5021SOL     MW20084   5.261   4.525   5.822
 5022SOL     OW20085   2.449   4.282   4.072
 5022SOL    HW120086   2.499   4.294   4.154
 5022SOL    HW220087   2.437   4.370   4.040
 5022SOL     MW20088   2.454   4.294   4.078
 5023SOL     OW20089   4.968   0.242   5.678
 5023SOL    HW120090   4.947   0.303   5.606
 5023SOL    HW220091   4.888   0.193   5.691
 5023SOL     MW20092   4.956   0.244   5.671
 5024SOL     OW20093   1.778   4.773   3.914
 5024SOL    HW120094   1.847   4.777   3.847
 5024SOL    HW220095   1.824   4.781   3.996
 5024SOL     MW20096   1.792   4.775   3.915
 5025SOL     OW20097   0.290   1.485   4.262
 5025SOL    HW120098   0.247   1.438   4.189
 5025SOL    HW220099   0.310   1.416   4.324
 5025SOL     MW20100   0.287   1.471   4.260
 5026SOL     OW20101   0.535   4.713   2.458
 5026SOL    HW120102   0.590   4.782   2.497
 5026SOL    HW220103   0.451   4.754   2.444
 5026SOL     MW20104   0.532   4.726   2.461
 5027SOL     OW20105   1.895   1.573   5.575
 5027SOL    HW120106   1.989   1.575   5.552
 5027SOL    HW220107   1.851   1.602   5.496
 5027SOL     MW20108   1.901   1.577   5.563
 5028SOL     OW20109   4.869   5.400   5.945
 5028SOL    HW120110   4.853   5.314   5.985
 5028SOL    HW220111   4.858   5.385   5.852
 5028SOL     MW20112   4.866   5.387   5.939
 5029SOL     OW20113   4.867   5.798   6.002
 5029SOL    HW120114   4.795   5.758   5.952
 5029SOL    HW220115   4.911   5.853   5.939
 5029SOL     MW20116   4.864   5.800   5.989
 5030SOL     OW20117   1.079   2.680   4.398
 5030SOL    HW120118   1.066   2.678   4.302
 5030SOL    HW220119   1.034   2.759   4.426
 5030SOL     MW20120   1.072   2.689   4.389
 5031SOL     OW20121   1.972   2.473   0.359
 5031SOL    HW120122   2.060   2.494   0.327
 5031SOL    HW220123   1.988   2.418   0.436
 5031SOL     MW20124   1.985   2.469   0.364
 5032SOL     OW20125   2.700   1.872   1.939
 5032SOL    HW120126   2.642   1.817   1.993
 5032SOL    HW220127   2.753   1.919   2.001
 5032SOL     MW20128   2.699   1.871   1.953
 5033SOL     OW20129   5.780   2.770   2.977
 5033SOL    HW120130   5.687   2.749   2.994
 5033SOL    HW220131   5.785   2.778   2.882
 5033SOL     MW20132   5.769   2.768   2.968
 5034SOL     OW20133   4.635   2.271   2.053
 5034SOL    HW120134   4.545   2.284   2.021
 5034SOL    HW220135   4.625   2.258   2.147
 5034SOL     MW20136   4.623   2.271   2.060
 5035SOL     OW20137   0.558   0.661   3.055
 5035SOL    HW120138   0.485   0.722   3.070
 5035SOL    HW220139   0.632   0.703   3.097
 5035SOL     MW20140   0.558   0.674   3.062
 5036SOL     OW20141   1.979   4.764   2.580
 5036SOL    HW120142   1.954   4.680   2.621
 5036SOL    HW220143   1.934   4.764   2.497
 5036SOL     MW20144   1.971   4.753   2.575
 5037SOL     OW20145   0.163   2.413   3.892
 5037SOL    HW120146   0.122   2.492   3.929
 5037SOL    HW220147   0.159   2.426   3.798
 5037SOL     MW20148   0.157   2.424   3.885
 5038SOL     OW20149   5.348   3.154   2.514
 5038SOL    HW120150   5.371   3.169   2.422
 5038SOL    HW220151   5.411   3.207   2.562
 5038SOL     MW20152   5.358   3.163   2.509
 5039SOL     OW20153   0.747   1.350   3.916
 5039SOL    HW120154   0.818   1.410   3.892
 5039SOL    HW220155   0.770   1.268   3.873
 5039SOL     MW20156   0.759   1.347   3.908
 5040SOL     OW20157   2.215   2.964   3.160
 5040SOL    HW120158   2.286   2.921   3.111
 5040SOL    HW220159   2.143   2.967   3.099
 5040SOL     MW20160   2.215   2.959   3.147
 5041SOL     OW20161   4.888   1.904   3.000
 5041SOL    HW120162   4.923   1.991   3.022
 5041SOL    HW220163   4.856   1.913   2.911
 5041SOL     MW20164   4.889   1.916   2.992
 5042SOL     OW20165   5.554   4.346   3.177
 5042SOL    HW120166   5.541   4.259   3.216
 5042SOL    HW220167   5.540   4.332   3.084
 5042SOL     MW20168   5.551   4.333   3.171
 5043SOL     OW20169   2.914   3.978   2.114
 5043SOL    HW120170   2.939   3.888   2.089
 5043SOL    HW220171   2.965   3.995   2.192
 5043SOL     MW20172   2.923   3.969   2.120
 5044SOL     OW20173   3.788   5.661   0.169
 5044SOL    HW120174   3.834   5.592   0.119
 5044SOL    HW220175   3.761   5.723   0.102
 5044SOL     MW20176   3.790   5.660   0.155
 5045SOL     OW20177   0.696   4.821   0.018
 5045SOL    HW120178   0.685   4.869   0.101
 5045SOL    HW220179   0.621   4.846  -0.034
 5045SOL     MW20180   0.686   4.830   0.022
 5046SOL     OW20181   1.042   5.609   5.858
 5046SOL    HW120182   1.084   5.639   5.940
 5046SOL    HW220183   1.095   5.648   5.790
 5046SOL     MW20184   1.054   5.618   5.860
 5047SOL     OW20185   2.338   0.752   4.277
 5047SOL    HW120186   2.410   0.689   4.278
 5047SOL    HW220187   2.323   0.769   4.185
 5047SOL     MW20188   2.345   0.746   4.266
 5048SOL     OW20189   4.282   4.749   1.821
 5048SOL    HW120190   4.258   4.658   1.799
 5048SOL    HW220191   4.272   4.796   1.740
 5048SOL     MW20192   4.278   4.743   1.809
 5049SOL     OW20193   3.386   1.657   2.948
 5049SOL    HW120194   3.412   1.727   3.010
 5049SOL    HW220195   3.420   1.687   2.864
 5049SOL     MW20196   3.394   1.669   2.946
 5050SOL     OW20197   5.066   3.370   2.934
 5050SOL    HW120198   5.005   3.397   3.003
 5050SOL    HW220199   5.137   3.328   2.980
 5050SOL     MW20200   5.067   3.369   2.948
 5051SOL     OW20201   3.954   0.811   5.897
 5051SOL    HW120202   4.049   0.823   5.895
 5051SOL    HW220203   3.931   0.790   5.808
 5051SOL     MW20204   3.963   0.810   5.886
 5052SOL     OW20205   1.375   0.474   3.497
 5052SOL    HW120206   1.403   0.544   3.438
 5052SOL    HW220207   1.361   0.517   3.580
 5052SOL     MW20208   1.377   0.487   3.500
 5053SOL     OW20209   5.676   2.319   4.097
 5053SOL    HW120210   5.750   2.366   4.056
 5053SOL    HW220211   5.649   2.375   4.168
 5053SOL     MW20212   5.682   2.331   4.100
 5054SOL     OW20213   0.923   2.271   3.688
 5054SOL    HW120214   0.989   2.305   3.749
 5054SOL    HW220215   0.844   2.316   3.712
 5054SOL     MW20216   0.922   2.281   3.698
 5055SOL     OW20217   3.836   3.565   4.554
 5055SOL    HW120218   3.906   3.631   4.556
 5055SOL    HW220219   3.873   3.495   4.501
 5055SOL     MW20220   3.849   3.565   4.548
 5056SOL     OW20221   2.674   1.840   3.137
 5056SOL    HW120222   2.602   1.823   3.075
 5056SOL    HW220223   2.684   1.757   3.184
 5056SOL     MW20224   2.666   1.828   3.135
 5057SOL     OW20225   1.703   1.273   2.722
 5057SOL    HW120226   1.764   1.315   2.660
 5057SOL    HW220227   1.724   1.312   2.806
 5057SOL     MW20228   1.713   1.282   2.724
 5058SOL     OW20229   4.930   1.225   3.071
 5058SOL    HW120230   5.021   1.255   3.059
 5058SOL    HW220231   4.923   1.211   3.165
 5058SOL     MW20232   4.940   1.227   3.081
 5059SOL     OW20233   5.803   1.601   0.841
 5059SOL    HW120234   5.773   1.640   0.758
 5059SOL    HW220235   5.728   1.552   0.872
 5059SOL     MW20236   5.791   1.600   0.835
 5060SOL     OW20237   4.511   4.244   4.501
 5060SOL    HW120238   4.454   4.245   4.579
 5060SOL    HW220239   4.521   4.336   4.479
 5060SOL     MW20240   4.506   4.255   4.508
 5061SOL     OW20241   1.138   1.975   5.826
 5061SOL    HW120242   1.149   1.950   5.734
 5061SOL    HW220243   1.060   1.929   5.855
 5061SOL     MW20244   1.130   1.967   5.818
 5062SOL     OW20245   5.842   2.675   1.705
 5062SOL    HW120246   5.821   2.589   1.744
 5062SOL    HW220247   5.887   2.653   1.624
 5062SOL     MW20248   5.845   2.662   1.700
 5063SOL     OW20249   5.137   5.361   5.961
 5063SOL    HW120250   5.049   5.344   5.926
 5063SOL    HW220251   5.166   5.276   5.993
 5063SOL     MW20252   5.130   5.349   5.960
 5064SOL     OW20253   0.475   1.982   0.109
 5064SOL    HW120254   0.538   2.053   0.126
 5064SOL    HW220255   0.449   1.994   0.019
 5064SOL     MW20256   0.480   1.992   0.101
 5065SOL     OW20257   2.163   4.460   5.768
 5065SOL    HW120258   2.181   4.431   5.678
 5065SOL    HW220259   2.072   4.436   5.782
 5065SOL     MW20260   2.154   4.454   5.759
 5066SOL     OW20261   4.425   0.253   1.871
 5066SOL    HW120262   4.370   0.206   1.807
 5066SOL    HW220263   4.368   0.321   1.905
 5066SOL     MW20264   4.412   0.255   1.867
 5067SOL     OW20265   2.794   3.705   3.772
 5067SOL    HW120266   2.871   3.761   3.761
 5067SOL    HW220267   2.821   3.639   3.834
 5067SOL     MW20268   2.806   3.704   3.778
 5068SOL     OW20269   1.341   0.222   0.571
 5068SOL    HW120270   1.346   0.235   0.476
 5068SOL    HW220271   1.342   0.310   0.607
 5068SOL     MW20272   1.342   0.234   0.564
 5069SOL     OW20273   0.175   5.248   5.362
 5069SOL    HW120274   0.256   5.290   5.332
 5069SOL    HW220275   0.191   5.227   5.453
 5069SOL     MW20276   0.186   5.250   5.369
 5070SOL     OW20277   3.117   3.626  -0.023
 5070SOL    HW120278   3.212   3.630  -0.004
 5070SOL    HW220279   3.078   3.608   0.062
 5070SOL     MW20280   3.124   3.625  -0.010
 5071SOL     OW20281   0.099   0.416   1.600
 5071SOL    HW120282   0.117   0.511   1.605
 5071SOL    HW220283   0.008   0.411   1.575
 5071SOL     MW20284   0.091   0.427   1.598
 5072SOL     OW20285   2.686   3.047   4.080
 5072SOL    HW120286   2.766   2.999   4.057
 5072SOL    HW220287   2.700   3.074   4.170
 5072SOL     MW20288   2.697   3.045   4.088
 5073SOL     OW20289   5.184   0.108   0.826
 5073SOL    HW120290   5.110   0.106   0.765
 5073SOL    HW220291   5.143   0.108   0.912
 5073SOL     MW20292   5.170   0.108   0.829
 5074SOL     OW20293   0.413   0.865   4.562
 5074SOL    HW120294   0.430   0.960   4.560
 5074SOL    HW220295   0.408   0.845   4.655
 5074SOL     MW20296   0.414   0.874   4.573
 5075SOL     OW20297   3.956   2.705   4.144
 5075SOL    HW120298   3.934   2.763   4.070
 5075SOL    HW220299   3.915   2.747   4.219
 5075SOL     MW20300   3.949   2.717   4.144
 5076SOL     OW20301   2.176   5.419   1.668
 5076SOL    HW120302   2.209   5.507   1.690
 5076SOL    HW220303   2.205   5.404   1.579
 5076SOL     MW20304   2.183   5.428   1.660
 5077SOL     OW20305   4.944   4.940   4.718
 5077SOL    HW120306   4.854   4.972   4.732
 5077SOL    HW220307   4.934   4.868   4.657
 5077SOL     MW20308   4.932   4.936   4.712
 5078SOL     OW20309   1.199   2.547   2.230
 5078SOL    HW120310   1.104   2.528   2.225
 5078SOL    HW220311   1.236   2.502   2.155
 5078SOL     MW20312   1.192   2.539   2.220
 5079SOL     OW20313   4.921   0.385   6.045
 5079SOL    HW120314   4.833   0.378   6.083
 5079SOL    HW220315   4.915   0.337   5.963
 5079SOL     MW20316   4.910   0.379   6.040
 5080SOL     OW20317   5.267   5.123   3.981
 5080SOL    HW120318   5.218   5.201   3.953
 5080SOL    HW220319   5.287   5.139   4.072
 5080SOL     MW20320   5.264   5.134   3.988
 5081SOL     OW20321   3.148   5.538   3.641
 5081SOL    HW120322   3.196   5.500   3.715
 5081SOL    HW220323   3.137   5.629   3.665
 5081SOL     MW20324   3.152   5.544   3.652
 5082SOL     OW20325   4.913   3.483   1.727
 5082SOL    HW120326   4.877   3.512   1.643
 5082SOL    HW220327   4.858   3.525   1.792
 5082SOL     MW20328   4.902   3.491   1.725
 5083SOL     OW20329   0.928   5.416   1.488
 5083SOL    HW120330   0.913   5.364   1.408
 5083SOL    HW220331   1.020   5.440   1.483
 5083SOL     MW20332   0.937   5.412   1.477
 5084SOL     OW20333   3.019   2.982   5.566
 5084SOL    HW120334   3.020   2.890   5.595
 5084SOL    HW220335   3.084   2.986   5.497
 5084SOL     MW20336   3.027   2.971   5.561
 5085SOL     OW20337   2.562   2.843   1.683
 5085SOL    HW120338   2.543   2.913   1.746
 5085SOL    HW220339   2.478   2.820   1.646
 5085SOL     MW20340   2.550   2.849   1.686
 5086SOL     OW20341   0.464   4.486   4.660
 5086SOL    HW120342   0.369   4.474   4.669
 5086SOL    HW220343   0.488   4.538   4.736
 5086SOL     MW20344   0.455   4.491   4.670
 5087SOL     OW20345   3.180   5.624   1.490
 5087SOL    HW120346   3.233   5.544   1.478
 5087SOL    HW220347   3.226   5.672   1.558
 5087SOL     MW20348   3.192   5.620   1.497
 5088SOL     OW20349   5.528   3.053   3.291
 5088SOL    HW120350   5.476   3.078   3.214
 5088SOL    HW220351   5.472   3.074   3.365
 5088SOL     MW20352   5.515   3.059   3.290
 5089SOL     OW20353   0.242   5.189   1.494
 5089SOL    HW120354   0.312   5.231   1.444
 5089SOL    HW220355   0.163   5.232   1.464
 5089SOL     MW20356   0.241   5.199   1.485
 5090SOL     OW20357   5.364   0.176   0.222
 5090SOL    HW120358   5.438   0.191   0.162
 5090SOL    HW220359   5.383   0.231   0.297
 5090SOL     MW20360   5.375   0.184   0.224
 5091SOL     OW20361   2.621   4.153   5.684
 5091SOL    HW120362   2.560   4.163   5.758
 5091SOL    HW220363   2.701   4.122   5.725
 5091SOL     MW20364   2.623   4.150   5.698
 5092SOL     OW20365   6.029   0.559   5.715
 5092SOL    HW120366   5.961   0.572   5.783
 5092SOL    HW220367   6.018   0.469   5.688
 5092SOL     MW20368   6.019   0.550   5.720
 5093SOL     OW20369   1.902   0.292   1.178
 5093SOL    HW120370   1.830   0.270   1.239
 5093SOL    HW220371   1.858   0.326   1.102
 5093SOL     MW20372   1.888   0.293   1.177
 5094SOL     OW20373   0.069   0.287   5.128
 5094SOL    HW120374   0.096   0.218   5.066
 5094SOL    HW220375  -0.024   0.276   5.137
 5094SOL     MW20376   0.062   0.277   5.122
 5095SOL     OW20377   2.584   2.543   4.477
 5095SOL    HW120378   2.614   2.486   4.549
 5095SOL    HW220379   2.502   2.504   4.450
 5095SOL     MW20380   2.578   2.531   4.483
 5096SOL     OW20381   2.823   4.119   4.160
 5096SOL    HW120382   2.803   4.209   4.188
 5096SOL    HW220383   2.838   4.126   4.066
 5096SOL     MW20384   2.822   4.131   4.152
 5097SOL     OW20385   5.055   0.444   4.728
 5097SOL    HW120386   5.035   0.370   4.786
 5097SOL    HW220387   5.038   0.410   4.641
 5097SOL     MW20388   5.050   0.431   4.725
 5098SOL     OW20389   6.080   1.669   3.255
 5098SOL    HW120390   6.063   1.632   3.168
 5098SOL    HW220391   6.111   1.757   3.238
 5098SOL     MW20392   6.081   1.675   3.242
 5099SOL     OW20393   4.823   1.256   3.940
 5099SOL    HW120394   4.839   1.318   3.868
 5099SOL    HW220395   4.735   1.277   3.969
 5099SOL     MW20396   4.814   1.266   3.935
 5100SOL     OW20397   0.231   6.012   2.127
 5100SOL    HW120398   0.143   6.051   2.135
 5100SOL    HW220399   0.226   5.960   2.048
 5100SOL     MW20400   0.219   6.011   2.119
 5101SOL     OW20401   2.449   5.989   5.098
 5101SOL    HW120402   2.468   5.902   5.061
 5101SOL    HW220403   2.460   5.977   5.192
 5101SOL     MW20404   2.453   5.977   5.105
 5102SOL     OW20405   0.228   2.746   5.482
 5102SOL    HW120406   0.218   2.800   5.561
 5102SOL    HW220407   0.141   2.745   5.443
 5102SOL     MW20408   0.216   2.752   5.487
 5103SOL     OW20409   5.059   5.632   4.769
 5103SOL    HW120410   5.025   5.721   4.756
 5103SOL    HW220411   5.059   5.621   4.864
 5103SOL     MW20412   5.055   5.641   4.779
 5104SOL     OW20413   3.926   0.618   3.057
 5104SOL    HW120414   3.975   0.595   2.978
 5104SOL    HW220415   3.978   0.686   3.099
 5104SOL     MW20416   3.938   0.624   3.052
 5105SOL     OW20417   1.431   0.689   3.068
 5105SOL    HW120418   1.475   0.772   3.047
 5105SOL    HW220419   1.359   0.684   3.006
 5105SOL     MW20420   1.428   0.698   3.058
 5106SOL     OW20421   2.822   2.456   1.103
 5106SOL    HW120422   2.833   2.551   1.092
 5106SOL    HW220423   2.904   2.427   1.142
 5106SOL     MW20424   2.833   2.464   1.106
 5107SOL     OW20425   5.595   0.430   1.258
 5107SOL    HW120426   5.507   0.420   1.296
 5107SOL    HW220427   5.589   0.388   1.173
 5107SOL     MW20428   5.583   0.424   1.252
 5108SOL     OW20429   5.795   1.935   2.850
 5108SOL    HW120430   5.722   1.959   2.908
 5108SOL    HW220431   5.820   2.016   2.808
 5108SOL     MW20432   5.789   1.948   2.852
 5109SOL     OW20433   1.530   0.150   3.843
 5109SOL    HW120434   1.445   0.168   3.801
 5109SOL    HW220435   1.511   0.151   3.936
 5109SOL     MW20436   1.517   0.152   3.849
 5110SOL     OW20437   5.026   3.960   3.579
 5110SOL    HW120438   5.004   3.986   3.668
 5110SOL    HW220439   4.947   3.976   3.529
 5110SOL     MW20440   5.014   3.965   3.584
 5111SOL     OW20441   0.913   1.366   0.138
 5111SOL    HW120442   0.889   1.459   0.130
 5111SOL    HW220443   0.962   1.361   0.219
 5111SOL     MW20444   0.916   1.376   0.147
 5112SOL     OW20445   5.355   3.979   3.577
 5112SOL    HW120446   5.423   3.973   3.646
 5112SOL    HW220447   5.399   4.020   3.504
 5112SOL     MW20448   5.368   3.983   3.577
 5113SOL     OW20449   0.818   1.937   0.819
 5113SOL    HW120450   0.812   2.024   0.860
 5113SOL    HW220451   0.831   1.956   0.727
 5113SOL     MW20452   0.819   1.950   0.813
 5114SOL     OW20453   1.084   0.983   4.242
 5114SOL    HW120454   1.060   0.894   4.213
 5114SOL    HW220455   1.120   0.970   4.329
 5114SOL     MW20456   1.085   0.970   4.248
 5115SOL     OW20457   4.581   2.232   0.301
 5115SOL    HW120458   4.657   2.185   0.266
 5115SOL    HW220459   4.610   2.264   0.386
 5115SOL     MW20460   4.593   2.230   0.307
 5116SOL     OW20461   2.187   3.163   2.586
 5116SOL    HW120462   2.119   3.159   2.518
 5116SOL    HW220463   2.238   3.240   2.564
 5116SOL     MW20464   2.185   3.172   2.575
 5117SOL     OW20465   1.467   4.374   1.539
 5117SOL    HW120466   1.524   4.442   1.500
 5117SOL    HW220467   1.464   4.398   1.631
 5117SOL     MW20468   1.474   4.386   1.546
 5118SOL     OW20469   4.620   2.149   1.654
 5118SOL    HW120470   4.626   2.209   1.579
 5118SOL    HW220471   4.577   2.072   1.619
 5118SOL     MW20472   4.615   2.147   1.641
 5119SOL     OW20473   3.609   3.435   3.365
 5119SOL    HW120474   3.590   3.458   3.456
 5119SOL    HW220475   3.627   3.517   3.322
 5119SOL     MW20476   3.609   3.447   3.371
 5120SOL     OW20477   3.507   3.678   5.316
 5120SOL    HW120478   3.472   3.751   5.369
 5120SOL    HW220479   3.502   3.710   5.227
 5120SOL     MW20480   3.502   3.691   5.312
 5121SOL     OW20481   1.040   3.831   1.680
 5121SOL    HW120482   1.117   3.878   1.647
 5121SOL    HW220483   0.983   3.826   1.604
 5121SOL     MW20484   1.042   3.836   1.667
 5122SOL     OW20485   1.179   4.887   3.452
 5122SOL    HW120486   1.187   4.812   3.512
 5122SOL    HW220487   1.202   4.851   3.367
 5122SOL     MW20488   1.183   4.873   3.449
 5123SOL     OW20489   1.694   5.967   3.649
 5123SOL    HW120490   1.680   5.986   3.556
 5123SOL    HW220491   1.690   5.872   3.655
 5123SOL     MW20492   1.692   5.958   3.638
 5124SOL     OW20493   5.707   5.193   2.800
 5124SOL    HW120494   5.726   5.272   2.749
 5124SOL    HW220495   5.766   5.197   2.873
 5124SOL     MW20496   5.716   5.203   2.802
 5125SOL     OW20497   0.957   0.866   4.859
 5125SOL    HW120498   0.889   0.808   4.894
 5125SOL    HW220499   0.967   0.838   4.769
 5125SOL     MW20500   0.950   0.855   4.853
 5126SOL     OW20501   4.294   5.966   0.690
 5126SOL    HW120502   4.280   5.918   0.772
 5126SOL    HW220503   4.323   6.052   0.719
 5126SOL     MW20504   4.296   5.970   0.703
 5127SOL     OW20505   3.708   5.586   5.790
 5127SOL    HW120506   3.787   5.633   5.762
 5127SOL    HW220507   3.726   5.495   5.772
 5127SOL     MW20508   3.720   5.581   5.785
 5128SOL     OW20509   1.001   1.168   4.704
 5128SOL    HW120510   1.060   1.107   4.749
 5128SOL    HW220511   0.989   1.130   4.618
 5128SOL     MW20512   1.006   1.156   4.699
 5129SOL     OW20513   1.390   3.082   2.203
 5129SOL    HW120514   1.298   3.093   2.231
 5129SOL    HW220515   1.384   3.076   2.108
 5129SOL     MW20516   1.378   3.083   2.195
 5130SOL     OW20517   0.509   5.448   3.723
 5130SOL    HW120518   0.508   5.542   3.744
 5130SOL    HW220519   0.474   5.443   3.635
 5130SOL     MW20520   0.505   5.459   3.715
 5131SOL     OW20521   1.241   0.180   2.895
 5131SOL    HW120522   1.181   0.128   2.840
 5131SOL    HW220523   1.233   0.141   2.981
 5131SOL     MW20524   1.233   0.169   2.899
 5132SOL     OW20525   3.006   2.094   0.092
 5132SOL    HW120526   3.036   2.003   0.101
 5132SOL    HW220527   3.083   2.146   0.114
 5132SOL     MW20528   3.019   2.089   0.096
 5133SOL     OW20529   3.820   3.622   3.072
 5133SOL    HW120530   3.767   3.552   3.031
 5133SOL    HW220531   3.792   3.701   3.027
 5133SOL     MW20532   3.810   3.623   3.061
 5134SOL     OW20533   0.487   0.866   1.505
 5134SOL    HW120534   0.399   0.862   1.466
 5134SOL    HW220535   0.471   0.888   1.596
 5134SOL     MW20536   0.474   0.868   1.511
 5135SOL     OW20537   5.980   3.625   1.178
 5135SOL    HW120538   5.982   3.534   1.148
 5135SOL    HW220539   5.996   3.620   1.271
 5135SOL     MW20540   5.982   3.613   1.185
 5136SOL     OW20541   5.541   5.043   4.892
 5136SOL    HW120542   5.556   4.964   4.944
 5136SOL    HW220543   5.512   5.108   4.955
 5136SOL     MW20544   5.539   5.041   4.906
 5137SOL     OW20545   3.356   3.433   1.836
 5137SOL    HW120546   3.398   3.512   1.800
 5137SOL    HW220547   3.291   3.410   1.771
 5137SOL     MW20548   3.353   3.440   1.824
 5138SOL     OW20549   0.899   2.230   1.898
 5138SOL    HW120550   0.959   2.305   1.894
 5138SOL    HW220551   0.870   2.229   1.989
 5138SOL     MW20552   0.903   2.239   1.908
 5139SOL     OW20553   5.376   5.516   4.202
 5139SOL    HW120554   5.312   5.481   4.139
 5139SOL    HW220555   5.397   5.442   4.258
 5139SOL     MW20556   5.371   5.503   4.201
 5140SOL     OW20557   5.569   3.136   1.471
 5140SOL    HW120558   5.651   3.089   1.452
 5140SOL    HW220559   5.590   3.188   1.548
 5140SOL     MW20560   5.582   3.137   1.478
 5141SOL     OW20561   0.653   3.014   4.191
 5141SOL    HW120562   0.633   3.097   4.146
 5141SOL    HW220563   0.580   3.002   4.251
 5141SOL     MW20564   0.642   3.023   4.193
 5142SOL     OW20565   0.830   1.259   4.220
 5142SOL    HW120566   0.893   1.194   4.189
 5142SOL    HW220567   0.850   1.269   4.312
 5142SOL     MW20568   0.840   1.252   4.227
 5143SOL     OW20569   3.966   3.524   5.623
 5143SOL    HW120570   4.020   3.547   5.547
 5143SOL    HW220571   4.009   3.566   5.696
 5143SOL     MW20572   3.977   3.532   5.623
 5144SOL     OW20573   4.645   4.836   3.494
 5144SOL    HW120574   4.691   4.782   3.558
 5144SOL    HW220575   4.639   4.781   3.417
 5144SOL     MW20576   4.650   4.823   3.492
 5145SOL     OW20577   5.856   1.674   2.201
 5145SOL    HW120578   5.813   1.758   2.182
 5145SOL    HW220579   5.831   1.654   2.290
 5145SOL     MW20580   5.848   1.682   2.209
 5146SOL     OW20581   3.139   5.794   3.758
 5146SOL    HW120582   3.083   5.861   3.718
 5146SOL    HW220583   3.079   5.724   3.780
 5146SOL     MW20584   3.125   5.794   3.756
 5147SOL     OW20585   0.510   0.399   0.600
 5147SOL    HW120586   0.450   0.473   0.615
 5147SOL    HW220587   0.589   0.438   0.565
 5147SOL     MW20588   0.512   0.412   0.598
 5148SOL     OW20589   3.021   5.546   4.288
 5148SOL    HW120590   3.085   5.510   4.226
 5148SOL    HW220591   3.037   5.639   4.287
 5148SOL     MW20592   3.030   5.552   4.280
 5149SOL     OW20593   5.703   3.325   6.028
 5149SOL    HW120594   5.664   3.268   5.960
 5149SOL    HW220595   5.660   3.299   6.108
 5149SOL     MW20596   5.693   3.315   6.029
 5150SOL     OW20597   1.184   0.300   1.490
 5150SOL    HW120598   1.137   0.371   1.445
 5150SOL    HW220599   1.188   0.329   1.581
 5150SOL     MW20600   1.179   0.312   1.496
 5151SOL     OW20601   3.815   4.127   2.906
 5151SOL    HW120602   3.811   4.101   2.814
 5151SOL    HW220603   3.751   4.196   2.914
 5151SOL     MW20604   3.807   4.132   2.896
 5152SOL     OW20605   5.650   3.569   5.755
 5152SOL    HW120606   5.590   3.630   5.711
 5152SOL    HW220607   5.662   3.606   5.841
 5152SOL     MW20608   5.644   3.581   5.759
 5153SOL     OW20609   0.869   0.779   3.238
 5153SOL    HW120610   0.945   0.778   3.298
 5153SOL    HW220611   0.888   0.712   3.174
 5153SOL     MW20612   0.880   0.771   3.238
 5154SOL     OW20613   1.057   1.929   5.421
 5154SOL    HW120614   1.049   2.006   5.479
 5154SOL    HW220615   1.127   1.952   5.362
 5154SOL     MW20616   1.064   1.941   5.421
 5155SOL     OW20617   2.685   2.589   3.268
 5155SOL    HW120618   2.751   2.532   3.308
 5155SOL    HW220619   2.694   2.574   3.174
 5155SOL     MW20620   2.694   2.581   3.262
 5156SOL     OW20621   0.976   1.096   3.457
 5156SOL    HW120622   0.992   1.189   3.477
 5156SOL    HW220623   0.982   1.052   3.540
 5156SOL     MW20624   0.979   1.102   3.469
 5157SOL     OW20625   3.719   1.108   0.213
 5157SOL    HW120626   3.690   1.024   0.178
 5157SOL    HW220627   3.722   1.095   0.307
 5157SOL     MW20628   3.716   1.097   0.220
 5158SOL     OW20629   6.021   1.505   4.798
 5158SOL    HW120630   6.102   1.463   4.767
 5158SOL    HW220631   6.031   1.596   4.773
 5158SOL     MW20632   6.032   1.511   4.791
 5159SOL     OW20633   1.345   1.332   2.624
 5159SOL    HW120634   1.290   1.291   2.691
 5159SOL    HW220635   1.335   1.276   2.548
 5159SOL     MW20636   1.337   1.321   2.623
 5160SOL     OW20637   5.752   0.714   0.673
 5160SOL    HW120638   5.818   0.758   0.618
 5160SOL    HW220639   5.698   0.785   0.706
 5160SOL     MW20640   5.754   0.728   0.670
 5161SOL     OW20641   0.754   4.163   2.015
 5161SOL    HW120642   0.701   4.082   2.011
 5161SOL    HW220643   0.831   4.138   2.065
 5161SOL     MW20644   0.757   4.150   2.020
 5162SOL     OW20645   2.769   5.574   0.968
 5162SOL    HW120646   2.803   5.622   0.892
 5162SOL    HW220647   2.794   5.626   1.042
 5162SOL     MW20648   2.776   5.586   0.967
 5163SOL     OW20649   4.813   6.021   1.845
 5163SOL    HW120650   4.741   5.962   1.869
 5163SOL    HW220651   4.842   5.988   1.761
 5163SOL     MW20652   4.807   6.010   1.838
 5164SOL     OW20653   2.763   3.929   5.499
 5164SOL    HW120654   2.704   3.867   5.543
 5164SOL    HW220655   2.705   3.980   5.444
 5164SOL     MW20656   2.749   3.927   5.498
 5165SOL     OW20657   3.111   3.707   5.120
 5165SOL    HW120658   3.040   3.644   5.106
 5165SOL    HW220659   3.162   3.669   5.191
 5165SOL     MW20660   3.108   3.695   5.127
 5166SOL     OW20661   0.852   2.130   2.332
 5166SOL    HW120662   0.876   2.198   2.268
 5166SOL    HW220663   0.797   2.176   2.395
 5166SOL     MW20664   0.848   2.144   2.332
 5167SOL     OW20665   3.241   2.360   3.160
 5167SOL    HW120666   3.314   2.337   3.103
 5167SOL    HW220667   3.275   2.346   3.248
 5167SOL     MW20668   3.254   2.355   3.164
 5168SOL     OW20669   4.991   1.707   3.541
 5168SOL    HW120670   5.081   1.722   3.571
 5168SOL    HW220671   4.954   1.794   3.533
 5168SOL     MW20672   4.997   1.719   3.544
 5169SOL     OW20673   5.612   1.656   3.579
 5169SOL    HW120674   5.674   1.640   3.507
 5169SOL    HW220675   5.666   1.655   3.657
 5169SOL     MW20676   5.626   1.654   3.580
 5170SOL     OW20677   1.970   6.051   2.128
 5170SOL    HW120678   1.910   6.126   2.121
 5170SOL    HW220679   2.035   6.066   2.060
 5170SOL     MW20680   1.971   6.062   2.119
 5171SOL     OW20681   0.904   4.576   2.408
 5171SOL    HW120682   0.985   4.606   2.450
 5171SOL    HW220683   0.922   4.584   2.315
 5171SOL     MW20684   0.916   4.581   2.402
 5172SOL     OW20685   4.621   2.149   3.994
 5172SOL    HW120686   4.530   2.150   4.025
 5172SOL    HW220687   4.614   2.156   3.899
 5172SOL     MW20688   4.609   2.150   3.986
 5173SOL     OW20689   3.947   1.139   3.185
 5173SOL    HW120690   4.006   1.065   3.164
 5173SOL    HW220691   4.005   1.209   3.210
 5173SOL     MW20692   3.961   1.138   3.185
 5174SOL     OW20693   2.148   3.424   1.657
 5174SOL    HW120694   2.061   3.427   1.699
 5174SOL    HW220695   2.131   3.398   1.568
 5174SOL     MW20696   2.136   3.422   1.652
 5175SOL     OW20697   2.569   2.045   5.445
 5175SOL    HW120698   2.541   2.005   5.527
 5175SOL    HW220699   2.542   2.136   5.453
 5175SOL     MW20700   2.563   2.051   5.456
 5176SOL     OW20701   1.229   5.718   2.785
 5176SOL    HW120702   1.191   5.729   2.697
 5176SOL    HW220703   1.174   5.770   2.842
 5176SOL     MW20704   1.218   5.725   2.781
 5177SOL     OW20705   5.258   5.464   0.278
 5177SOL    HW120706   5.316   5.540   0.269
 5177SOL    HW220707   5.178   5.500   0.314
 5177SOL     MW20708   5.255   5.478   0.281
 5178SOL     OW20709   0.050   5.663   4.299
 5178SOL    HW120710  -0.018   5.725   4.328
 5178SOL    HW220711   0.050   5.672   4.204
 5178SOL     MW20712   0.042   5.672   4.291
 5179SOL     OW20713   3.683   2.415   2.656
 5179SOL    HW120714   3.611   2.361   2.622
 5179SOL    HW220715   3.710   2.467   2.581
 5179SOL     MW20716   3.677   2.415   2.643
 5180SOL     OW20717   3.678   2.364   3.498
 5180SOL    HW120718   3.619   2.368   3.421
 5180SOL    HW220719   3.619   2.367   3.572
 5180SOL     MW20720   3.664   2.365   3.497
 5181SOL     OW20721   1.111   2.977   0.933
 5181SOL    HW120722   1.149   3.065   0.932
 5181SOL    HW220723   1.041   2.982   0.997
 5181SOL     MW20724   1.107   2.988   0.941
 5182SOL     OW20725   5.329   5.021   3.479
 5182SOL    HW120726   5.252   5.014   3.537
 5182SOL    HW220727   5.292   5.034   3.392
 5182SOL     MW20728   5.315   5.022   3.476
 5183SOL     OW20729   2.835   2.783   5.311
 5183SOL    HW120730   2.815   2.707   5.256
 5183SOL    HW220731   2.899   2.832   5.261
 5183SOL     MW20732   2.840   2.780   5.298
 5184SOL     OW20733   5.677   0.403   2.532
 5184SOL    HW120734   5.705   0.475   2.590
 5184SOL    HW220735   5.679   0.326   2.587
 5184SOL     MW20736   5.681   0.403   2.546
 5185SOL     OW20737   3.340   3.332   2.504
 5185SOL    HW120738   3.358   3.402   2.440
 5185SOL    HW220739   3.246   3.325   2.506
 5185SOL     MW20740   3.331   3.340   2.496
 5186SOL     OW20741   6.062   4.090   0.535
 5186SOL    HW120742   6.135   4.128   0.486
 5186SOL    HW220743   6.088   4.097   0.626
 5186SOL     MW20744   6.074   4.095   0.539
 5187SOL     OW20745   3.447   5.511   2.948
 5187SOL    HW120746   3.432   5.596   2.991
 5187SOL    HW220747   3.410   5.447   3.008
 5187SOL     MW20748   3.441   5.514   2.960
 5188SOL     OW20749   3.159   1.954   2.995
 5188SOL    HW120750   3.189   1.934   3.084
 5188SOL    HW220751   3.120   2.040   3.003
 5188SOL     MW20752   3.158   1.962   3.007
 5189SOL     OW20753   1.561   2.033   0.941
 5189SOL    HW120754   1.633   1.969   0.941
 5189SOL    HW220755   1.567   2.076   1.026
 5189SOL     MW20756   1.570   2.030   0.951
 5190SOL     OW20757   3.268   5.500   1.768
 5190SOL    HW120758   3.220   5.473   1.847
 5190SOL    HW220759   3.357   5.471   1.783
 5190SOL     MW20760   3.273   5.494   1.779
 5191SOL     OW20761   4.103   2.752   2.115
 5191SOL    HW120762   4.021   2.763   2.165
 5191SOL    HW220763   4.146   2.678   2.156
 5191SOL     MW20764   4.098   2.744   2.126
 5192SOL     OW20765   1.740   5.963   1.557
 5192SOL    HW120766   1.697   5.983   1.641
 5192SOL    HW220767   1.813   5.907   1.581
 5192SOL     MW20768   1.744   5.959   1.570
 5193SOL     OW20769   2.230   0.556   0.681
 5193SOL    HW120770   2.279   0.500   0.743
 5193SOL    HW220771   2.273   0.640   0.687
 5193SOL     MW20772   2.241   0.559   0.689
 5194SOL     OW20773   5.980   0.689   1.131
 5194SOL    HW120774   5.910   0.631   1.100
 5194SOL    HW220775   6.052   0.631   1.150
 5194SOL     MW20776   5.980   0.675   1.129
 5195SOL     OW20777   4.595   5.403   1.405
 5195SOL    HW120778   4.641   5.488   1.409
 5195SOL    HW220779   4.647   5.350   1.346
 5195SOL     MW20780   4.607   5.407   1.398
 5196SOL     OW20781   1.028   1.880   2.375
 5196SOL    HW120782   1.070   1.950   2.426
 5196SOL    HW220783   0.972   1.835   2.437
 5196SOL     MW20784   1.026   1.884   2.388
 5197SOL     OW20785   1.635   3.705   0.421
 5197SOL    HW120786   1.601   3.721   0.510
 5197SOL    HW220787   1.593   3.771   0.368
 5197SOL     MW20788   1.626   3.715   0.425
 5198SOL     OW20789   5.006   5.863   1.760
 5198SOL    HW120790   4.962   5.890   1.841
 5198SOL    HW220791   4.946   5.887   1.691
 5198SOL     MW20792   4.994   5.869   1.762
 5199SOL     OW20793   2.942   4.481   5.855
 5199SOL    HW120794   2.897   4.547   5.909
 5199SOL    HW220795   2.913   4.500   5.767
 5199SOL     MW20796   2.933   4.491   5.851
 5200SOL     OW20797   3.043   1.529   4.995
 5200SOL    HW120798   2.972   1.593   5.008
 5200SOL    HW220799   3.110   1.556   5.057
 5200SOL     MW20800   3.042   1.540   5.004
 5201SOL     OW20801   1.946   2.854   2.918
 5201SOL    HW120802   1.891   2.844   2.839
 5201SOL    HW220803   2.032   2.823   2.891
 5201SOL     MW20804   1.949   2.849   2.905
 5202SOL     OW20805   5.831   5.980   2.979
 5202SOL    HW120806   5.802   5.889   2.993
 5202SOL    HW220807   5.824   6.020   3.064
 5202SOL     MW20808   5.827   5.973   2.990
 5203SOL     OW20809   2.702   5.327   1.807
 5203SOL    HW120810   2.682   5.337   1.713
 5203SOL    HW220811   2.619   5.342   1.850
 5203SOL     MW20812   2.690   5.330   1.801
 5204SOL     OW20813   2.528   2.464   2.465
 5204SOL    HW120814   2.588   2.428   2.398
 5204SOL    HW220815   2.546   2.557   2.465
 5204SOL     MW20816   2.537   2.470   2.457
 5205SOL     OW20817   4.298   4.045   2.071
 5205SOL    HW120818   4.223   3.998   2.033
 5205SOL    HW220819   4.266   4.134   2.083
 5205SOL     MW20820   4.285   4.050   2.067
 5206SOL     OW20821   6.065   4.322   4.480
 5206SOL    HW120822   6.139   4.286   4.530
 5206SOL    HW220823   6.093   4.315   4.390
 5206SOL     MW20824   6.078   4.317   4.475
 5207SOL     OW20825   3.796   0.797   0.890
 5207SOL    HW120826   3.882   0.805   0.934
 5207SOL    HW220827   3.817   0.761   0.805
 5207SOL     MW20828   3.809   0.794   0.886
 5208SOL     OW20829   6.124   2.755   0.727
 5208SOL    HW120830   6.070   2.736   0.649
 5208SOL    HW220831   6.064   2.745   0.800
 5208SOL     MW20832   6.110   2.751   0.726
 5209SOL     OW20833   1.934   4.640   2.083
 5209SOL    HW120834   1.869   4.573   2.059
 5209SOL    HW220835   1.999   4.635   2.014
 5209SOL     MW20836   1.934   4.631   2.072
 5210SOL     OW20837   5.361   5.038   4.729
 5210SOL    HW120838   5.369   5.132   4.710
 5210SOL    HW220839   5.361   5.033   4.824
 5210SOL     MW20840   5.362   5.049   4.738
 5211SOL     OW20841   3.974   5.980   5.096
 5211SOL    HW120842   3.907   5.923   5.134
 5211SOL    HW220843   3.958   5.976   5.002
 5211SOL     MW20844   3.964   5.972   5.089
 5212SOL     OW20845   1.403   1.616   0.589
 5212SOL    HW120846   1.326   1.672   0.573
 5212SOL    HW220847   1.422   1.627   0.681
 5212SOL     MW20848   1.396   1.624   0.598
 5213SOL     OW20849   4.479   4.743   0.041
 5213SOL    HW120850   4.408   4.809   0.042
 5213SOL    HW220851   4.540   4.776  -0.023
 5213SOL     MW20852   4.477   4.755   0.034
 5214SOL     OW20853   3.967   1.656   3.537
 5214SOL    HW120854   4.015   1.728   3.494
 5214SOL    HW220855   3.970   1.678   3.629
 5214SOL     MW20856   3.973   1.668   3.542
 5215SOL     OW20857   2.719   5.518   5.704
 5215SOL    HW120858   2.741   5.585   5.770
 5215SOL    HW220859   2.760   5.549   5.624
 5215SOL     MW20860   2.727   5.530   5.702
 5216SOL     OW20861   3.747   4.206   5.154
 5216SOL    HW120862   3.726   4.131   5.210
 5216SOL    HW220863   3.781   4.167   5.074
 5216SOL     MW20864   3.749   4.192   5.151
 5217SOL     OW20865   2.352   4.699   1.393
 5217SOL    HW120866   2.298   4.672   1.318
 5217SOL    HW220867   2.292   4.696   1.467
 5217SOL     MW20868   2.338   4.695   1.393
 5218SOL     OW20869   3.775   0.523   0.840
 5218SOL    HW120870   3.826   0.525   0.921
 5218SOL    HW220871   3.774   0.431   0.815
 5218SOL     MW20872   3.781   0.512   0.847
 5219SOL     OW20873   5.637   3.443   0.543
 5219SOL    HW120874   5.639   3.357   0.500
 5219SOL    HW220875   5.634   3.423   0.636
 5219SOL     MW20876   5.637   3.430   0.549
 5220SOL     OW20877   2.433   4.669   4.558
 5220SOL    HW120878   2.368   4.644   4.491
 5220SOL    HW220879   2.392   4.646   4.640
 5220SOL     MW20880   2.421   4.663   4.559
 5221SOL     OW20881   0.766   1.723   2.690
 5221SOL    HW120882   0.778   1.674   2.772
 5221SOL    HW220883   0.787   1.813   2.714
 5221SOL     MW20884   0.770   1.728   2.703
 5222SOL     OW20885   5.132   3.632   2.339
 5222SOL    HW120886   5.216   3.603   2.376
 5222SOL    HW220887   5.155   3.669   2.255
 5222SOL     MW20888   5.145   3.633   2.334
 5223SOL     OW20889   4.019   2.367   4.474
 5223SOL    HW120890   4.096   2.342   4.525
 5223SOL    HW220891   3.960   2.405   4.538
 5223SOL     MW20892   4.021   2.369   4.488
 5224SOL     OW20893   5.617   4.214   4.359
 5224SOL    HW120894   5.631   4.118   4.354
 5224SOL    HW220895   5.523   4.223   4.366
 5224SOL     MW20896   5.608   4.203   4.360
 5225SOL     OW20897   0.247   4.352   1.995
 5225SOL    HW120898   0.235   4.287   1.925
 5225SOL    HW220899   0.164   4.397   1.998
 5225SOL     MW20900   0.236   4.349   1.987
 5226SOL     OW20901   1.112   0.770   0.777
 5226SOL    HW120902   1.171   0.820   0.719
 5226SOL    HW220903   1.169   0.731   0.841
 5226SOL     MW20904   1.126   0.772   0.777
 5227SOL     OW20905   5.942   2.516   3.134
 5227SOL    HW120906   5.923   2.574   3.060
 5227SOL    HW220907   6.035   2.527   3.149
 5227SOL     MW20908   5.950   2.525   3.127
 5228SOL     OW20909   0.391   4.797   4.313
 5228SOL    HW120910   0.385   4.771   4.220
 5228SOL    HW220911   0.346   4.727   4.359
 5228SOL     MW20912   0.385   4.785   4.307
 5229SOL     OW20913   2.347   3.115   2.082
 5229SOL    HW120914   2.428   3.088   2.127
 5229SOL    HW220915   2.373   3.125   1.992
 5229SOL     MW20916   2.360   3.113   2.077
 5230SOL     OW20917   0.942   6.063   0.036
 5230SOL    HW120918   0.948   6.049   0.131
 5230SOL    HW220919   0.854   6.098   0.023
 5230SOL     MW20920   0.932   6.065   0.046
 5231SOL     OW20921   4.730   2.144   4.244
 5231SOL    HW120922   4.757   2.059   4.207
 5231SOL    HW220923   4.737   2.132   4.338
 5231SOL     MW20924   4.734   2.132   4.251
 5232SOL     OW20925   3.904   6.000   3.471
 5232SOL    HW120926   3.831   5.967   3.524
 5232SOL    HW220927   3.868   6.078   3.429
 5232SOL     MW20928   3.890   6.005   3.472
 5233SOL     OW20929   4.623   5.770   4.919
 5233SOL    HW120930   4.627   5.685   4.964
 5233SOL    HW220931   4.580   5.751   4.837
 5233SOL     MW20932   4.618   5.758   4.915
 5234SOL     OW20933   5.536   0.291   2.961
 5234SOL    HW120934   5.512   0.384   2.957
 5234SOL    HW220935   5.506   0.255   2.879
 5234SOL     MW20936   5.529   0.298   2.951
 5235SOL     OW20937   3.012   0.371   2.773
 5235SOL    HW120938   2.928   0.331   2.797
 5235SOL    HW220939   2.994   0.464   2.769
 5235SOL     MW20940   3.000   0.377   2.775
 5236SOL     OW20941   4.262   3.494   2.437
 5236SOL    HW120942   4.250   3.417   2.380
 5236SOL    HW220943   4.265   3.458   2.525
 5236SOL     MW20944   4.261   3.480   2.441
 5237SOL     OW20945   3.452   1.654   1.958
 5237SOL    HW120946   3.388   1.691   1.897
 5237SOL    HW220947   3.536   1.674   1.920
 5237SOL     MW20948   3.454   1.661   1.946
 5238SOL     OW20949   2.500   2.407   5.656
 5238SOL    HW120950   2.418   2.390   5.704
 5238SOL    HW220951   2.485   2.371   5.570
 5238SOL     MW20952   2.488   2.401   5.652
 5239SOL     OW20953   0.250   2.965   4.145
 5239SOL    HW120954   0.186   3.036   4.147
 5239SOL    HW220955   0.334   3.009   4.144
 5239SOL     MW20956   0.252   2.979   4.145
 5240SOL     OW20957   1.402   3.259   2.273
 5240SOL    HW120958   1.494   3.282   2.254
 5240SOL    HW220959   1.386   3.295   2.359
 5240SOL     MW20960   1.412   3.266   2.281
 5241SOL     OW20961   2.180   4.630   5.397
 5241SOL    HW120962   2.196   4.716   5.437
 5241SOL    HW220963   2.088   4.632   5.374
 5241SOL     MW20964   2.171   4.641   5.399
 5242SOL     OW20965   4.137   1.292   1.873
 5242SOL    HW120966   4.089   1.216   1.907
 5242SOL    HW220967   4.100   1.366   1.919
 5242SOL     MW20968   4.127   1.291   1.882
 5243SOL     OW20969   3.595   6.060   5.916
 5243SOL    HW120970   3.532   5.988   5.909
 5243SOL    HW220971   3.659   6.029   5.979
 5243SOL     MW20972   3.595   6.048   5.923
 5244SOL     OW20973   1.124   2.055   5.101
 5244SOL    HW120974   1.190   2.083   5.037
 5244SOL    HW220975   1.156   1.971   5.132
 5244SOL     MW20976   1.136   2.048   5.097
 5245SOL     OW20977   0.239   3.795   1.965
 5245SOL    HW120978   0.197   3.834   1.888
 5245SOL    HW220979   0.302   3.733   1.928
 5245SOL     MW20980   0.241   3.792   1.951
 5246SOL     OW20981   2.193   2.798   4.740
 5246SOL    HW120982   2.133   2.849   4.796
 5246SOL    HW220983   2.242   2.744   4.801
 5246SOL     MW20984   2.192   2.798   4.754
 5247SOL     OW20985   5.733   2.926   3.398
 5247SOL    HW120986   5.781   2.848   3.369
 5247SOL    HW220987   5.646   2.895   3.418
 5247SOL     MW20988   5.729   2.913   3.397
 5248SOL     OW20989   0.731   5.251   2.074
 5248SOL    HW120990   0.729   5.301   2.156
 5248SOL    HW220991   0.819   5.215   2.072
 5248SOL     MW20992   0.741   5.253   2.084
 5249SOL     OW20993   3.534  -0.011   2.474
 5249SOL    HW120994   3.487   0.072   2.486
 5249SOL    HW220995   3.571  -0.004   2.386
 5249SOL     MW20996   3.533  -0.000   2.465
 5250SOL     OW20997   2.166   5.976   2.478
 5250SOL    HW120998   2.152   5.889   2.516
 5250SOL    HW220999   2.093   5.987   2.418
 5250SOL     MW21000   2.156   5.967   2.476
 5251SOL     OW21001   5.650   4.184   2.095
 5251SOL    HW121002   5.562   4.146   2.104
 5251SOL    HW221003   5.637   4.259   2.038
 5251SOL     MW21004   5.638   4.189   2.089
 5252SOL     OW21005   2.908   1.355   4.074
 5252SOL    HW121006   3.002   1.337   4.080
 5252SOL    HW221007   2.885   1.331   3.985
 5252SOL     MW21008   2.917   1.350   4.064
 5253SOL     OW21009   1.368   4.498   1.077
 5253SOL    HW121010   1.442   4.452   1.119
 5253SOL    HW221011   1.407   4.577   1.041
 5253SOL     MW21012   1.382   4.502   1.078
 5254SOL     OW21013   3.287   0.031   3.172
 5254SOL    HW121014   3.323  -0.057   3.156
 5254SOL    HW221015   3.363   0.086   3.183
 5254SOL     MW21016   3.300   0.026   3.171
 5255SOL     OW21017   0.452   4.084   2.960
 5255SOL    HW121018   0.499   4.016   3.008
 5255SOL    HW221019   0.453   4.054   2.870
 5255SOL     MW21020   0.458   4.072   2.955
 5256SOL     OW21021   3.969   3.435   1.393
 5256SOL    HW121022   4.010   3.383   1.463
 5256SOL    HW221023   3.984   3.525   1.419
 5256SOL     MW21024   3.976   3.440   1.404
 5257SOL     OW21025   3.981   6.006   2.327
 5257SOL    HW121026   4.037   6.081   2.351
 5257SOL    HW221027   4.033   5.957   2.265
 5257SOL     MW21028   3.994   6.009   2.323
 5258SOL     OW21029   1.949   2.000   3.993
 5258SOL    HW121030   1.889   2.071   4.018
 5258SOL    HW221031   1.921   1.976   3.906
 5258SOL     MW21032   1.939   2.006   3.986
 5259SOL     OW21033   2.266   4.937   1.005
 5259SOL    HW121034   2.239   4.944   1.097
 5259SOL    HW221035   2.360   4.943   1.007
 5259SOL     MW21036   2.274   4.938   1.017
 5260SOL     OW21037   2.952   0.871   5.125
 5260SOL    HW121038   2.907   0.942   5.171
 5260SOL    HW221039   2.908   0.793   5.155
 5260SOL     MW21040   2.941   0.870   5.134
 5261SOL     OW21041   4.572   4.868   4.672
 5261SOL    HW121042   4.557   4.963   4.684
 5261SOL    HW221043   4.596   4.838   4.759
 5261SOL     MW21044   4.573   4.876   4.684
 5262SOL     OW21045   4.037   1.196   4.906
 5262SOL    HW121046   4.034   1.100   4.915
 5262SOL    HW221047   4.046   1.228   4.995
 5262SOL     MW21048   4.038   1.188   4.918
 5263SOL     OW21049   0.416   0.218   0.681
 5263SOL    HW121050   0.335   0.203   0.731
 5263SOL    HW221051   0.435   0.133   0.643
 5263SOL     MW21052   0.408   0.206   0.682
 5264SOL     OW21053   0.148   3.907   2.526
 5264SOL    HW121054   0.130   3.988   2.479
 5264SOL    HW221055   0.145   3.932   2.618
 5264SOL     MW21056   0.146   3.919   2.531
 5265SOL     OW21057   4.569   0.070   0.957
 5265SOL    HW121058   4.543   0.151   0.912
 5265SOL    HW221059   4.644   0.095   1.009
 5265SOL     MW21060   4.575   0.083   0.958
 5266SOL     OW21061   2.858   4.957   4.062
 5266SOL    HW121062   2.942   4.931   4.100
 5266SOL    HW221063   2.845   5.047   4.091
 5266SOL     MW21064   2.867   4.964   4.070
 5267SOL     OW21065   2.774   5.154   0.170
 5267SOL    HW121066   2.788   5.111   0.256
 5267SOL    HW221067   2.691   5.200   0.180
 5267SOL     MW21068   2.766   5.154   0.182
 5268SOL     OW21069   4.213   4.712   0.133
 5268SOL    HW121070   4.168   4.660   0.067
 5268SOL    HW221071   4.300   4.726   0.097
 5268SOL     MW21072   4.218   4.708   0.121
 5269SOL     OW21073   1.361   0.390   1.867
 5269SOL    HW121074   1.309   0.446   1.926
 5269SOL    HW221075   1.353   0.303   1.904
 5269SOL     MW21076   1.354   0.387   1.878
 5270SOL     OW21077   0.938   4.741   1.358
 5270SOL    HW121078   0.955   4.654   1.321
 5270SOL    HW221079   0.855   4.767   1.319
 5270SOL     MW21080   0.930   4.734   1.349
 5271SOL     OW21081   0.546   0.255   4.664
 5271SOL    HW121082   0.466   0.305   4.646
 5271SOL    HW221083   0.579   0.232   4.578
 5271SOL     MW21084   0.540   0.259   4.652
 5272SOL     OW21085   1.139   3.510   2.707
 5272SOL    HW121086   1.128   3.606   2.706
 5272SOL    HW221087   1.107   3.483   2.792
 5272SOL     MW21088   1.134   3.518   2.717
 5273SOL     OW21089   3.830   0.974   1.450
 5273SOL    HW121090   3.916   1.017   1.453
 5273SOL    HW221091   3.816   0.943   1.539
 5273SOL     MW21092   3.839   0.976   1.461
 5274SOL     OW21093   3.104   5.536   4.876
 5274SOL    HW121094   3.183   5.571   4.835
 5274SOL    HW221095   3.135   5.491   4.953
 5274SOL     MW21096   3.117   5.535   4.880
 5275SOL     OW21097   3.124   1.451   0.490
 5275SOL    HW121098   3.075   1.377   0.454
 5275SOL    HW221099   3.071   1.482   0.562
 5275SOL     MW21100   3.112   1.446   0.494
 5276SOL     OW21101   3.071   4.146   3.862
 5276SOL    HW121102   3.030   4.076   3.810
 5276SOL    HW221103   3.050   4.124   3.951
 5276SOL     MW21104   3.063   4.135   3.866
 5277SOL     OW21105   5.973   3.038   2.694
 5277SOL    HW121106   6.009   3.121   2.659
 5277SOL    HW221107   5.902   3.017   2.636
 5277SOL     MW21108   5.969   3.046   2.683
 5278SOL     OW21109   4.673   2.088   5.174
 5278SOL    HW121110   4.687   2.124   5.085
 5278SOL    HW221111   4.591   2.040   5.167
 5278SOL     MW21112   4.665   2.087   5.162
 5279SOL     OW21113   3.549   3.373   5.908
 5279SOL    HW121114   3.480   3.431   5.942
 5279SOL    HW221115   3.521   3.352   5.820
 5279SOL     MW21116   3.537   3.378   5.902
 5280SOL     OW21117   0.699   4.554   6.051
 5280SOL    HW121118   0.613   4.524   6.080
 5280SOL    HW221119   0.698   4.542   5.957
 5280SOL     MW21120   0.689   4.549   6.044
 5281SOL     OW21121   2.601   1.836   0.205
 5281SOL    HW121122   2.646   1.839   0.120
 5281SOL    HW221123   2.543   1.761   0.198
 5281SOL     MW21124   2.600   1.827   0.194
 5282SOL     OW21125   1.604   0.779   5.389
 5282SOL    HW121126   1.550   0.775   5.309
 5282SOL    HW221127   1.586   0.865   5.425
 5282SOL     MW21128   1.595   0.788   5.383
 5283SOL     OW21129   4.410   4.499   2.408
 5283SOL    HW121130   4.374   4.517   2.496
 5283SOL    HW221131   4.349   4.541   2.349
 5283SOL     MW21132   4.398   4.506   2.412
 5284SOL     OW21133   2.814   5.051   3.915
 5284SOL    HW121134   2.744   5.105   3.952
 5284SOL    HW221135   2.805   5.062   3.821
 5284SOL     MW21136   2.804   5.059   3.909
 5285SOL     OW21137   5.510   4.987   5.485
 5285SOL    HW121138   5.434   5.035   5.520
 5285SOL    HW221139   5.472   4.916   5.435
 5285SOL     MW21140   5.496   4.984   5.484
 5286SOL     OW21141   0.493   0.972   5.393
 5286SOL    HW121142   0.431   0.973   5.320
 5286SOL    HW221143   0.525   0.883   5.394
 5286SOL     MW21144   0.489   0.961   5.385
 5287SOL     OW21145   3.790   3.491   4.818
 5287SOL    HW121146   3.774   3.468   4.726
 5287SOL    HW221147   3.735   3.566   4.833
 5287SOL     MW21148   3.782   3.497   4.808
 5288SOL     OW21149   5.053   4.810   4.859
 5288SOL    HW121150   4.963   4.776   4.868
 5288SOL    HW221151   5.095   4.751   4.798
 5288SOL     MW21152   5.047   4.799   4.853
 5289SOL     OW21153   5.528   2.645   5.318
 5289SOL    HW121154   5.522   2.551   5.295
 5289SOL    HW221155   5.608   2.651   5.368
 5289SOL     MW21156   5.537   2.634   5.321
 5290SOL     OW21157   4.172   4.437   1.294
 5290SOL    HW121158   4.208   4.361   1.247
 5290SOL    HW221159   4.078   4.426   1.288
 5290SOL     MW21160   4.166   4.426   1.288
 5291SOL     OW21161   5.699   1.976   5.701
 5291SOL    HW121162   5.787   1.939   5.705
 5291SOL    HW221163   5.712   2.070   5.706
 5291SOL     MW21164   5.711   1.983   5.702
 5292SOL     OW21165   5.794   3.755   2.990
 5292SOL    HW121166   5.847   3.802   2.924
 5292SOL    HW221167   5.704   3.779   2.970
 5292SOL     MW21168   5.790   3.764   2.979
 5293SOL     OW21169   4.018   1.587   0.234
 5293SOL    HW121170   4.071   1.536   0.172
 5293SOL    HW221171   4.081   1.632   0.288
 5293SOL     MW21172   4.032   1.586   0.233
 5294SOL     OW21173   5.322   0.363   4.960
 5294SOL    HW121174   5.413   0.339   4.977
 5294SOL    HW221175   5.307   0.336   4.870
 5294SOL     MW21176   5.331   0.357   4.951
 5295SOL     OW21177   5.382   2.567   5.793
 5295SOL    HW121178   5.389   2.662   5.809
 5295SOL    HW221179   5.470   2.535   5.802
 5295SOL     MW21180   5.393   2.575   5.796
 5296SOL     OW21181   3.455   2.478   0.800
 5296SOL    HW121182   3.545   2.483   0.766
 5296SOL    HW221183   3.404   2.446   0.727
 5296SOL     MW21184   3.460   2.475   0.787
 5297SOL     OW21185   5.325   0.820   0.370
 5297SOL    HW121186   5.417   0.805   0.347
 5297SOL    HW221187   5.281   0.832   0.287
 5297SOL     MW21188   5.331   0.819   0.358
 5298SOL     OW21189   5.176   0.625   2.453
 5298SOL    HW121190   5.266   0.611   2.420
 5298SOL    HW221191   5.124   0.561   2.407
 5298SOL     MW21192   5.181   0.616   2.444
 5299SOL     OW21193   0.026   6.088   1.657
 5299SOL    HW121194   0.032   6.020   1.725
 5299SOL    HW221195   0.115   6.118   1.646
 5299SOL     MW21196   0.037   6.083   1.664
 5300SOL     OW21197   5.935   3.628   4.883
 5300SOL    HW121198   5.844   3.643   4.856
 5300SOL    HW221199   5.935   3.646   4.977
 5300SOL     MW21200   5.924   3.632   4.891
 5301SOL     OW21201   4.938   4.051   2.078
 5301SOL    HW121202   4.887   3.971   2.096
 5301SOL    HW221203   4.994   4.027   2.005
 5301SOL     MW21204   4.939   4.038   2.072
 5302SOL     OW21205   3.406   5.534   1.550
 5302SOL    HW121206   3.479   5.532   1.488
 5302SOL    HW221207   3.440   5.582   1.625
 5302SOL     MW21208   3.419   5.540   1.552
 5303SOL     OW21209   0.861   2.400   0.092
 5303SOL    HW121210   0.790   2.360   0.144
 5303SOL    HW221211   0.818   2.467   0.041
 5303SOL     MW21212   0.847   2.403   0.092
 5304SOL     OW21213   5.590   2.733   4.642
 5304SOL    HW121214   5.656   2.786   4.595
 5304SOL    HW221215   5.528   2.708   4.574
 5304SOL     MW21216   5.590   2.737   4.628
 5305SOL     OW21217   4.713   0.621   2.991
 5305SOL    HW121218   4.637   0.618   3.050
 5305SOL    HW221219   4.674   0.622   2.904
 5305SOL     MW21220   4.699   0.620   2.988
 5306SOL     OW21221   5.165   3.593   5.953
 5306SOL    HW121222   5.242   3.650   5.935
 5306SOL    HW221223   5.163   3.586   6.047
 5306SOL     MW21224   5.174   3.600   5.962
 5307SOL     OW21225   0.900   5.166   0.216
 5307SOL    HW121226   0.816   5.167   0.263
 5307SOL    HW221227   0.958   5.117   0.273
 5307SOL     MW21228   0.897   5.160   0.229
 5308SOL     OW21229   2.508   0.871   5.098
 5308SOL    HW121230   2.439   0.934   5.121
 5308SOL    HW221231   2.463   0.787   5.097
 5308SOL     MW21232   2.494   0.869   5.101
 5309SOL     OW21233   2.455   3.596   3.644
 5309SOL    HW121234   2.393   3.539   3.597
 5309SOL    HW221235   2.498   3.538   3.705
 5309SOL     MW21236   2.453   3.582   3.645
 5310SOL     OW21237   3.726   3.818   4.323
 5310SOL    HW121238   3.804   3.779   4.282
 5310SOL    HW221239   3.705   3.892   4.267
 5310SOL     MW21240   3.733   3.822   4.312
 5311SOL     OW21241   5.755   2.676   3.935
 5311SOL    HW121242   5.827   2.672   3.871
 5311SOL    HW221243   5.763   2.595   3.984
 5311SOL     MW21244   5.765   2.666   3.933
 5312SOL     OW21245   5.351   0.881   2.455
 5312SOL    HW121246   5.329   0.970   2.426
 5312SOL    HW221247   5.351   0.886   2.549
 5312SOL     MW21248   5.348   0.892   2.462
 5313SOL     OW21249   2.476   0.813   0.536
 5313SOL    HW121250   2.405   0.821   0.471
 5313SOL    HW221251   2.448   0.869   0.607
 5313SOL     MW21252   2.464   0.821   0.536
 5314SOL     OW21253   1.291   2.582   5.615
 5314SOL    HW121254   1.231   2.656   5.601
 5314SOL    HW221255   1.318   2.557   5.527
 5314SOL     MW21256   1.287   2.588   5.603
 5315SOL     OW21257   3.462   3.573   1.481
 5315SOL    HW121258   3.538   3.529   1.441
 5315SOL    HW221259   3.486   3.582   1.573
 5315SOL     MW21260   3.474   3.569   1.487
 5316SOL     OW21261   0.188   5.047   2.462
 5316SOL    HW121262   0.208   4.953   2.472
 5316SOL    HW221263   0.153   5.053   2.374
 5316SOL     MW21264   0.186   5.036   2.452
 5317SOL     OW21265   1.071   2.376   2.500
 5317SOL    HW121266   1.107   2.374   2.590
 5317SOL    HW221267   1.004   2.309   2.502
 5317SOL     MW21268   1.067   2.368   2.512
 5318SOL     OW21269   3.670   1.315   1.920
 5318SOL    HW121270   3.594   1.283   1.969
 5318SOL    HW221271   3.728   1.350   1.987
 5318SOL     MW21272   3.668   1.315   1.934
 5319SOL     OW21273   4.800   3.501   3.584
 5319SOL    HW121274   4.862   3.440   3.544
 5319SOL    HW221275   4.824   3.502   3.676
 5319SOL     MW21276   4.810   3.494   3.590
 5320SOL     OW21277   4.383   5.460   4.312
 5320SOL    HW121278   4.397   5.555   4.300
 5320SOL    HW221279   4.298   5.444   4.273
 5320SOL     MW21280   4.375   5.470   4.306
 5321SOL     OW21281   4.364   3.157   5.269
 5321SOL    HW121282   4.353   3.122   5.358
 5321SOL    HW221283   4.278   3.151   5.230
 5321SOL     MW21284   4.353   3.152   5.275
 5322SOL     OW21285   4.567   3.315   0.641
 5322SOL    HW121286   4.600   3.393   0.595
 5322SOL    HW221287   4.563   3.342   0.732
 5322SOL     MW21288   4.570   3.328   0.646
 5323SOL     OW21289   1.539   4.258   1.344
 5323SOL    HW121290   1.504   4.243   1.432
 5323SOL    HW221291   1.631   4.278   1.358
 5323SOL     MW21292   1.546   4.258   1.357
 5324SOL     OW21293   1.198   1.317   4.629
 5324SOL    HW121294   1.272   1.359   4.584
 5324SOL    HW221295   1.202   1.352   4.717
 5324SOL     MW21296   1.207   1.326   4.634
 5325SOL     OW21297   1.262   1.049   3.600
 5325SOL    HW121298   1.207   1.112   3.552
 5325SOL    HW221299   1.223   0.964   3.580
 5325SOL     MW21300   1.251   1.046   3.592
 5326SOL     OW21301   2.970   4.736   0.096
 5326SOL    HW121302   2.934   4.796   0.030
 5326SOL    HW221303   3.064   4.746   0.088
 5326SOL     MW21304   2.977   4.745   0.087
 5327SOL     OW21305   4.792   4.676   2.991
 5327SOL    HW121306   4.706   4.656   2.953
 5327SOL    HW221307   4.781   4.662   3.084
 5327SOL     MW21308   4.780   4.672   2.998
 5328SOL     OW21309   1.420   0.831   1.729
 5328SOL    HW121310   1.340   0.823   1.782
 5328SOL    HW221311   1.491   0.810   1.789
 5328SOL     MW21312   1.419   0.828   1.743
 5329SOL     OW21313   4.406   2.821   2.639
 5329SOL    HW121314   4.379   2.775   2.558
 5329SOL    HW221315   4.341   2.795   2.703
 5329SOL     MW21316   4.395   2.813   2.636
 5330SOL     OW21317   5.529   2.257   0.252
 5330SOL    HW121318   5.493   2.217   0.331
 5330SOL    HW221319   5.452   2.283   0.202
 5330SOL     MW21320   5.515   2.255   0.255
 5331SOL     OW21321   5.821   6.103   4.160
 5331SOL    HW121322   5.757   6.032   4.159
 5331SOL    HW221323   5.827   6.128   4.252
 5331SOL     MW21324   5.814   6.097   4.171
 5332SOL     OW21325   3.745   1.037   1.165
 5332SOL    HW121326   3.781   1.099   1.101
 5332SOL    HW221327   3.789   0.955   1.145
 5332SOL     MW21328   3.755   1.035   1.155
 5333SOL     OW21329   2.685   5.010   4.522
 5333SOL    HW121330   2.775   5.039   4.538
 5333SOL    HW221331   2.673   5.024   4.429
 5333SOL     MW21332   2.694   5.015   4.513
 5334SOL     OW21333   0.740   0.600   2.925
 5334SOL    HW121334   0.667   0.646   2.884
 5334SOL    HW221335   0.714   0.592   3.016
 5334SOL     MW21336   0.728   0.605   2.931
 5335SOL     OW21337   1.404   5.140   4.681
 5335SOL    HW121338   1.355   5.218   4.651
 5335SOL    HW221339   1.360   5.067   4.639
 5335SOL     MW21340   1.393   5.141   4.672
 5336SOL     OW21341   5.011   5.466   3.113
 5336SOL    HW121342   4.927   5.510   3.127
 5336SOL    HW221343   5.070   5.508   3.175
 5336SOL     MW21344   5.008   5.477   3.122
 5337SOL     OW21345   4.685   1.468   3.274
 5337SOL    HW121346   4.622   1.427   3.335
 5337SOL    HW221347   4.749   1.510   3.331
 5337SOL     MW21348   4.685   1.468   3.288
 5338SOL     OW21349   0.814   3.141   1.144
 5338SOL    HW121350   0.768   3.124   1.227
 5338SOL    HW221351   0.765   3.092   1.080
 5338SOL     MW21352   0.802   3.133   1.147
 5339SOL     OW21353   3.626   1.474   5.509
 5339SOL    HW121354   3.552   1.534   5.522
 5339SOL    HW221355   3.625   1.419   5.587
 5339SOL     MW21356   3.617   1.475   5.520
 5340SOL     OW21357   4.894   2.761   3.593
 5340SOL    HW121358   4.806   2.756   3.554
 5340SOL    HW221359   4.878   2.754   3.686
 5340SOL     MW21360   4.882   2.759   3.599
 5341SOL     OW21361   2.689   4.426   3.188
 5341SOL    HW121362   2.672   4.339   3.149
 5341SOL    HW221363   2.726   4.406   3.273
 5341SOL     MW21364   2.691   4.413   3.193
 5342SOL     OW21365   2.039   0.117   1.106
 5342SOL    HW121366   2.054   0.132   1.200
 5342SOL    HW221367   2.065   0.027   1.092
 5342SOL     MW21368   2.044   0.108   1.115
 5343SOL     OW21369   0.965   1.931   1.946
 5343SOL    HW121370   0.995   2.005   1.892
 5343SOL    HW221371   1.000   1.949   2.032
 5343SOL     MW21372   0.973   1.942   1.950
 5344SOL     OW21373   0.661   5.342   2.326
 5344SOL    HW121374   0.597   5.372   2.391
 5344SOL    HW221375   0.697   5.263   2.364
 5344SOL     MW21376   0.657   5.336   2.338
 5345SOL     OW21377   4.956   3.823   1.449
 5345SOL    HW121378   4.889   3.758   1.427
 5345SOL    HW221379   5.014   3.778   1.508
 5345SOL     MW21380   4.955   3.810   1.453
 5346SOL     OW21381   1.966   4.173   2.883
 5346SOL    HW121382   2.036   4.175   2.817
 5346SOL    HW221383   1.973   4.257   2.926
 5346SOL     MW21384   1.975   4.184   2.880
 5347SOL     OW21385   4.349   5.033   0.081
 5347SOL    HW121386   4.370   5.096   0.151
 5347SOL    HW221387   4.376   4.949   0.116
 5347SOL     MW21388   4.354   5.031   0.094
 5348SOL     OW21389   2.230   3.193   3.279
 5348SOL    HW121390   2.165   3.252   3.239
 5348SOL    HW221391   2.206   3.192   3.371
 5348SOL     MW21392   2.219   3.200   3.285
 5349SOL     OW21393   1.026   1.526   5.621
 5349SOL    HW121394   0.965   1.551   5.691
 5349SOL    HW221395   1.012   1.592   5.554
 5349SOL     MW21396   1.017   1.537   5.621
 5350SOL     OW21397   0.911   4.546   5.233
 5350SOL    HW121398   0.905   4.642   5.228
 5350SOL    HW221399   0.965   4.522   5.159
 5350SOL     MW21400   0.916   4.555   5.224
 5351SOL     OW21401   2.897   1.175   0.471
 5351SOL    HW121402   2.886   1.237   0.399
 5351SOL    HW221403   2.870   1.224   0.548
 5351SOL     MW21404   2.892   1.188   0.471
 5352SOL     OW21405   2.131   1.267   4.416
 5352SOL    HW121406   2.208   1.297   4.466
 5352SOL    HW221407   2.154   1.285   4.326
 5352SOL     MW21408   2.144   1.273   4.412
 5353SOL     OW21409   4.572   5.777   1.233
 5353SOL    HW121410   4.655   5.775   1.281
 5353SOL    HW221411   4.550   5.686   1.220
 5353SOL     MW21412   4.580   5.766   1.237
 5354SOL     OW21413   2.973   3.936   4.247
 5354SOL    HW121414   2.999   4.023   4.215
 5354SOL    HW221415   3.041   3.878   4.217
 5354SOL     MW21416   2.984   3.940   4.240
 5355SOL     OW21417   5.198   2.342   3.084
 5355SOL    HW121418   5.221   2.402   3.155
 5355SOL    HW221419   5.125   2.384   3.039
 5355SOL     MW21420   5.192   2.354   3.087
 5356SOL     OW21421   4.905   5.704   5.527
 5356SOL    HW121422   4.893   5.771   5.460
 5356SOL    HW221423   4.981   5.734   5.576
 5356SOL     MW21424   4.913   5.716   5.525
 5357SOL     OW21425   4.313   3.628   2.574
 5357SOL    HW121426   4.329   3.685   2.651
 5357SOL    HW221427   4.237   3.577   2.599
 5357SOL     MW21428   4.306   3.629   2.587
 5358SOL     OW21429   1.863   1.825   4.421
 5358SOL    HW121430   1.921   1.818   4.498
 5358SOL    HW221431   1.804   1.896   4.443
 5358SOL     MW21432   1.863   1.833   4.433
 5359SOL     OW21433   5.247   5.200   2.684
 5359SOL    HW121434   5.167   5.253   2.691
 5359SOL    HW221435   5.246   5.147   2.762
 5359SOL     MW21436   5.237   5.200   2.694
 5360SOL     OW21437   4.907   0.394   2.274
 5360SOL    HW121438   4.899   0.474   2.326
 5360SOL    HW221439   4.891   0.324   2.337
 5360SOL     MW21440   4.904   0.395   2.288
 5361SOL     OW21441   2.962   3.602   5.494
 5361SOL    HW121442   3.014   3.566   5.422
 5361SOL    HW221443   3.026   3.628   5.559
 5361SOL     MW21444   2.976   3.601   5.493
 5362SOL     OW21445   2.217   4.274   1.562
 5362SOL    HW121446   2.309   4.256   1.585
 5362SOL    HW221447   2.201   4.219   1.486
 5362SOL     MW21448   2.226   4.265   1.556
 5363SOL     OW21449   1.342   4.333   2.080
 5363SOL    HW121450   1.334   4.243   2.048
 5363SOL    HW221451   1.377   4.324   2.167
 5363SOL     MW21452   1.345   4.321   2.086
 5364SOL     OW21453   2.936   1.029   3.181
 5364SOL    HW121454   3.030   1.048   3.184
 5364SOL    HW221455   2.915   1.030   3.088
 5364SOL     MW21456   2.945   1.031   3.170
 5365SOL     OW21457   5.974   4.021   0.710
 5365SOL    HW121458   5.983   3.926   0.695
 5365SOL    HW221459   6.039   4.040   0.776
 5365SOL     MW21460   5.983   4.012   0.716
 5366SOL     OW21461   3.845   2.815   5.741
 5366SOL    HW121462   3.933   2.812   5.780
 5366SOL    HW221463   3.854   2.872   5.666
 5366SOL     MW21464   3.857   2.821   5.737
 5367SOL     OW21465   1.845   2.044   3.335
 5367SOL    HW121466   1.872   2.135   3.349
 5367SOL    HW221467   1.890   1.995   3.403
 5367SOL     MW21468   1.854   2.049   3.345
 5368SOL     OW21469   3.873   5.353   3.272
 5368SOL    HW121470   3.935   5.407   3.222
 5368SOL    HW221471   3.926   5.282   3.306
 5368SOL     MW21472   3.887   5.351   3.270
 5369SOL     OW21473   5.015   0.107   5.447
 5369SOL    HW121474   5.064   0.036   5.489
 5369SOL    HW221475   5.019   0.086   5.354
 5369SOL     MW21476   5.021   0.096   5.441
 5370SOL     OW21477   4.747   3.013   1.078
 5370SOL    HW121478   4.812   3.078   1.104
 5370SOL    HW221479   4.796   2.948   1.028
 5370SOL     MW21480   4.760   3.013   1.075
 5371SOL     OW21481   0.603   5.836   3.689
 5371SOL    HW121482   0.522   5.889   3.695
 5371SOL    HW221483   0.616   5.826   3.595
 5371SOL     MW21484   0.595   5.842   3.678
 5372SOL     OW21485   2.267   4.349   4.149
 5372SOL    HW121486   2.280   4.307   4.063
 5372SOL    HW221487   2.225   4.282   4.201
 5372SOL     MW21488   2.264   4.335   4.144
 5373SOL     OW21489   2.567   2.290   0.036
 5373SOL    HW121490   2.542   2.206   0.076
 5373SOL    HW221491   2.556   2.275  -0.057
 5373SOL     MW21492   2.562   2.278   0.030
 5374SOL     OW21493   0.755   0.520   1.686
 5374SOL    HW121494   0.727   0.431   1.663
 5374SOL    HW221495   0.694   0.576   1.641
 5374SOL     MW21496   0.745   0.515   1.678
 5375SOL     OW21497   1.377   4.937   5.393
 5375SOL    HW121498   1.441   4.981   5.336
 5375SOL    HW221499   1.363   4.997   5.465
 5375SOL     MW21500   1.383   4.949   5.394
 5376SOL     OW21501   6.086   5.554   1.988
 5376SOL    HW121502   6.020   5.622   1.969
 5376SOL    HW221503   6.048   5.475   1.952
 5376SOL     MW21504   6.073   5.553   1.981
 5377SOL     OW21505   3.246   2.349   4.137
 5377SOL    HW121506   3.314   2.315   4.077
 5377SOL    HW221507   3.199   2.272   4.166
 5377SOL     MW21508   3.249   2.336   4.133
 5378SOL     OW21509   1.429   4.916   1.615
 5378SOL    HW121510   1.406   4.980   1.546
 5378SOL    HW221511   1.492   4.962   1.669
 5378SOL     MW21512   1.433   4.930   1.613
 5379SOL     OW21513   1.428   2.692   3.178
 5379SOL    HW121514   1.448   2.767   3.120
 5379SOL    HW221515   1.366   2.641   3.128
 5379SOL     MW21516   1.424   2.695   3.165
 5380SOL     OW21517   3.965   4.962   1.429
 5380SOL    HW121518   3.912   5.000   1.501
 5380SOL    HW221519   3.939   4.870   1.427
 5380SOL     MW21520   3.955   4.956   1.438
 5381SOL     OW21521   0.653   0.433   1.076
 5381SOL    HW121522   0.617   0.350   1.109
 5381SOL    HW221523   0.742   0.412   1.052
 5381SOL     MW21524   0.659   0.420   1.077
 5382SOL     OW21525   1.223   3.759   4.770
 5382SOL    HW121526   1.276   3.806   4.704
 5382SOL    HW221527   1.255   3.670   4.766
 5382SOL     MW21528   1.233   3.754   4.761
 5383SOL     OW21529   5.945   3.440   5.996
 5383SOL    HW121530   5.952   3.346   6.015
 5383SOL    HW221531   5.928   3.480   6.081
 5383SOL     MW21532   5.944   3.433   6.009
 5384SOL     OW21533   3.499   3.271   4.033
 5384SOL    HW121534   3.408   3.249   4.057
 5384SOL    HW221535   3.491   3.349   3.981
 5384SOL     MW21536   3.487   3.277   4.030
 5385SOL     OW21537   5.790   1.049   4.521
 5385SOL    HW121538   5.747   1.085   4.599
 5385SOL    HW221539   5.789   1.121   4.459
 5385SOL     MW21540   5.785   1.062   4.523
 5386SOL     OW21541   2.907   1.052   2.314
 5386SOL    HW121542   2.819   1.017   2.298
 5386SOL    HW221543   2.930   1.018   2.400
 5386SOL     MW21544   2.899   1.043   2.322
 5387SOL     OW21545   2.048   4.072   4.956
 5387SOL    HW121546   2.018   3.986   4.986
 5387SOL    HW221547   1.989   4.093   4.884
 5387SOL     MW21548   2.037   4.064   4.951
 5388SOL     OW21549   5.678   1.996   1.629
 5388SOL    HW121550   5.640   1.908   1.638
 5388SOL    HW221551   5.688   2.006   1.535
 5388SOL     MW21552   5.674   1.986   1.619
 5389SOL     OW21553   2.140   2.638   2.037
 5389SOL    HW121554   2.202   2.569   2.009
 5389SOL    HW221555   2.106   2.607   2.120
 5389SOL     MW21556   2.144   2.626   2.043
 5390SOL     OW21557   0.532   1.086   0.771
 5390SOL    HW121558   0.605   1.038   0.813
 5390SOL    HW221559   0.546   1.072   0.678
 5390SOL     MW21560   0.543   1.078   0.765
 5391SOL     OW21561   1.643   6.064   5.691
 5391SOL    HW121562   1.668   6.053   5.784
 5391SOL    HW221563   1.559   6.107   5.694
 5391SOL     MW21564   1.636   6.068   5.703
 5392SOL     OW21565   4.960   2.048   1.695
 5392SOL    HW121566   4.967   2.136   1.734
 5392SOL    HW221567   4.889   2.008   1.744
 5392SOL     MW21568   4.952   2.054   1.706
 5393SOL     OW21569   0.655   0.919   4.843
 5393SOL    HW121570   0.608   0.839   4.868
 5393SOL    HW221571   0.696   0.897   4.760
 5393SOL     MW21572   0.654   0.907   4.836
 5394SOL     OW21573   3.087   3.876   2.280
 5394SOL    HW121574   3.169   3.902   2.322
 5394SOL    HW221575   3.108   3.871   2.188
 5394SOL     MW21576   3.099   3.878   2.274
 5395SOL     OW21577   3.119   3.899   3.591
 5395SOL    HW121578   3.036   3.873   3.551
 5395SOL    HW221579   3.095   3.968   3.652
 5395SOL     MW21580   3.106   3.904   3.594
 5396SOL     OW21581   4.239   5.466   0.801
 5396SOL    HW121582   4.210   5.503   0.885
 5396SOL    HW221583   4.299   5.531   0.767
 5396SOL     MW21584   4.242   5.479   0.807
 5397SOL     OW21585   5.312   1.311   0.423
 5397SOL    HW121586   5.351   1.369   0.357
 5397SOL    HW221587   5.358   1.228   0.411
 5397SOL     MW21588   5.323   1.308   0.414
 5398SOL     OW21589   5.044   5.131   2.865
 5398SOL    HW121590   5.012   5.156   2.953
 5398SOL    HW221591   4.996   5.052   2.844
 5398SOL     MW21592   5.035   5.125   2.873
 5399SOL     OW21593   1.322   0.740   2.271
 5399SOL    HW121594   1.367   0.670   2.320
 5399SOL    HW221595   1.338   0.718   2.180
 5399SOL     MW21596   1.329   0.729   2.266
 5400SOL     OW21597   3.728   0.347   5.176
 5400SOL    HW121598   3.741   0.442   5.183
 5400SOL    HW221599   3.634   0.337   5.161
 5400SOL     MW21600   3.718   0.358   5.175
 5401SOL     OW21601   3.891   1.940   4.788
 5401SOL    HW121602   3.974   1.909   4.828
 5401SOL    HW221603   3.903   1.923   4.695
 5401SOL     MW21604   3.903   1.934   4.782
 5402SOL     OW21605   5.277   3.470   5.143
 5402SOL    HW121606   5.322   3.501   5.222
 5402SOL    HW221607   5.343   3.420   5.097
 5402SOL     MW21608   5.291   3.468   5.147
 5403SOL     OW21609   0.574   2.824   1.664
 5403SOL    HW121610   0.625   2.767   1.606
 5403SOL    HW221611   0.632   2.841   1.737
 5403SOL     MW21612   0.587   2.819   1.666
 5404SOL     OW21613   1.557   4.698   3.362
 5404SOL    HW121614   1.651   4.711   3.348
 5404SOL    HW221615   1.543   4.717   3.454
 5404SOL     MW21616   1.567   4.702   3.371
 5405SOL     OW21617   3.789   1.772   0.291
 5405SOL    HW121618   3.825   1.760   0.203
 5405SOL    HW221619   3.727   1.843   0.282
 5405SOL     MW21620   3.786   1.779   0.280
 5406SOL     OW21621   5.191   5.397   1.050
 5406SOL    HW121622   5.203   5.386   0.955
 5406SOL    HW221623   5.098   5.381   1.063
 5406SOL     MW21624   5.181   5.394   1.039
 5407SOL     OW21625   2.611   2.525   3.979
 5407SOL    HW121626   2.591   2.600   3.922
 5407SOL    HW221627   2.654   2.463   3.920
 5407SOL     MW21628   2.614   2.527   3.965
 5408SOL     OW21629   3.137   4.454   3.321
 5408SOL    HW121630   3.121   4.388   3.389
 5408SOL    HW221631   3.199   4.515   3.362
 5408SOL     MW21632   3.143   4.453   3.334
 5409SOL     OW21633   3.175   5.044   2.314
 5409SOL    HW121634   3.238   5.116   2.308
 5409SOL    HW221635   3.211   4.986   2.379
 5409SOL     MW21636   3.187   5.046   2.321
 5410SOL     OW21637   4.477   4.637   3.726
 5410SOL    HW121638   4.466   4.723   3.684
 5410SOL    HW221639   4.389   4.603   3.734
 5410SOL     MW21640   4.466   4.643   3.722
 5411SOL     OW21641  -0.018   4.934   0.998
 5411SOL    HW121642   0.031   4.915   1.079
 5411SOL    HW221643   0.049   4.954   0.935
 5411SOL     MW21644  -0.004   4.934   1.001
 5412SOL     OW21645   2.630   1.408   3.136
 5412SOL    HW121646   2.716   1.393   3.095
 5412SOL    HW221647   2.652   1.453   3.217
 5412SOL     MW21648   2.643   1.412   3.141
 5413SOL     OW21649   1.962   0.840   3.467
 5413SOL    HW121650   1.888   0.867   3.522
 5413SOL    HW221651   1.995   0.762   3.510
 5413SOL     MW21652   1.957   0.834   3.479
 5414SOL     OW21653   5.204   4.951   4.678
 5414SOL    HW121654   5.155   5.028   4.646
 5414SOL    HW221655   5.181   4.946   4.769
 5414SOL     MW21656   5.195   4.960   4.685
 5415SOL     OW21657   5.827   5.450   5.085
 5415SOL    HW121658   5.921   5.470   5.077
 5415SOL    HW221659   5.799   5.502   5.159
 5415SOL     MW21660   5.835   5.459   5.093
 5416SOL     OW21661   1.647   0.967   5.137
 5416SOL    HW121662   1.661   0.883   5.183
 5416SOL    HW221663   1.733   1.009   5.138
 5416SOL     MW21664   1.659   0.962   5.143
 5417SOL     OW21665   1.798   3.154   0.658
 5417SOL    HW121666   1.807   3.117   0.746
 5417SOL    HW221667   1.886   3.151   0.622
 5417SOL     MW21668   1.809   3.149   0.664
 5418SOL     OW21669   5.785   5.956   0.737
 5418SOL    HW121670   5.849   6.023   0.711
 5418SOL    HW221671   5.702   5.989   0.705
 5418SOL     MW21672   5.783   5.968   0.730
 5419SOL     OW21673   3.374   4.977   6.079
 5419SOL    HW121674   3.388   4.891   6.120
 5419SOL    HW221675   3.381   4.960   5.986
 5419SOL     MW21676   3.376   4.965   6.073
 5420SOL     OW21677   5.516   5.583   6.004
 5420SOL    HW121678   5.599   5.555   5.965
 5420SOL    HW221679   5.451   5.564   5.938
 5420SOL     MW21680   5.518   5.577   5.992
 5421SOL     OW21681   2.040   3.375   2.527
 5421SOL    HW121682   1.963   3.426   2.554
 5421SOL    HW221683   2.078   3.345   2.609
 5421SOL     MW21684   2.035   3.377   2.540
 5422SOL     OW21685   5.964   0.676   4.385
 5422SOL    HW121686   5.986   0.587   4.414
 5422SOL    HW221687   5.993   0.679   4.295
 5422SOL     MW21688   5.970   0.666   4.378
 5423SOL     OW21689   2.355   5.985   4.244
 5423SOL    HW121690   2.318   5.914   4.191
 5423SOL    HW221691   2.342   5.957   4.333
 5423SOL     MW21692   2.349   5.973   4.248
 5424SOL     OW21693   1.304   1.583   4.629
 5424SOL    HW121694   1.212   1.605   4.648
 5424SOL    HW221695   1.343   1.569   4.714
 5424SOL     MW21696   1.297   1.584   4.641
 5425SOL     OW21697   4.642   4.318   3.126
 5425SOL    HW121698   4.571   4.372   3.090
 5425SOL    HW221699   4.633   4.329   3.220
 5425SOL     MW21700   4.632   4.326   3.133
 5426SOL     OW21701   1.002   3.425   3.047
 5426SOL    HW121702   1.058   3.375   3.107
 5426SOL    HW221703   0.941   3.470   3.104
 5426SOL     MW21704   1.002   3.424   3.061
 5427SOL     OW21705   3.499   3.665   0.895
 5427SOL    HW121706   3.404   3.669   0.882
 5427SOL    HW221707   3.521   3.574   0.879
 5427SOL     MW21708   3.490   3.655   0.892
 5428SOL     OW21709   5.812   4.364   3.571
 5428SOL    HW121710   5.744   4.298   3.552
 5428SOL    HW221711   5.827   4.356   3.664
 5428SOL     MW21712   5.805   4.355   3.579
 5429SOL     OW21713   5.578   3.890   3.922
 5429SOL    HW121714   5.601   3.803   3.955
 5429SOL    HW221715   5.492   3.906   3.958
 5429SOL     MW21716   5.571   3.881   3.931
 5430SOL     OW21717   6.055   0.977   5.045
 5430SOL    HW121718   6.127   1.002   5.104
 5430SOL    HW221719   5.995   1.051   5.048
 5430SOL     MW21720   6.056   0.989   5.052
 5431SOL     OW21721   5.045   5.192   4.784
 5431SOL    HW121722   5.091   5.266   4.824
 5431SOL    HW221723   5.010   5.228   4.703
 5431SOL     MW21724   5.047   5.205   4.779
 5432SOL     OW21725   1.796   4.934   3.748
 5432SOL    HW121726   1.807   5.020   3.707
 5432SOL    HW221727   1.809   4.951   3.840
 5432SOL     MW21728   1.799   4.947   3.754
 5433SOL     OW21729   3.152   2.527   1.349
 5433SOL    HW121730   3.091   2.597   1.323
 5433SOL    HW221731   3.119   2.498   1.433
 5433SOL     MW21732   3.140   2.532   1.355
 5434SOL     OW21733   3.969   5.940   1.183
 5434SOL    HW121734   4.038   5.937   1.250
 5434SOL    HW221735   4.005   5.891   1.111
 5434SOL     MW21736   3.981   5.934   1.183
 5435SOL     OW21737   2.635   1.034   1.240
 5435SOL    HW121738   2.697   0.971   1.203
 5435SOL    HW221739   2.689   1.107   1.266
 5435SOL     MW21740   2.649   1.035   1.238
 5436SOL     OW21741   5.765   2.404   1.187
 5436SOL    HW121742   5.793   2.490   1.221
 5436SOL    HW221743   5.842   2.349   1.197
 5436SOL     MW21744   5.778   2.408   1.192
 5437SOL     OW21745   5.436   2.569   2.442
 5437SOL    HW121746   5.502   2.606   2.501
 5437SOL    HW221747   5.423   2.481   2.475
 5437SOL     MW21748   5.442   2.563   2.453
 5438SOL     OW21749   1.060   4.029   5.944
 5438SOL    HW121750   1.025   4.098   5.887
 5438SOL    HW221751   1.067   4.071   6.029
 5438SOL     MW21752   1.057   4.043   5.947
 5439SOL     OW21753   4.799   1.333   4.160
 5439SOL    HW121754   4.798   1.394   4.234
 5439SOL    HW221755   4.889   1.336   4.129
 5439SOL     MW21756   4.810   1.341   4.165
 5440SOL     OW21757   5.884   0.692   2.874
 5440SOL    HW121758   5.834   0.724   2.798
 5440SOL    HW221759   5.825   0.703   2.948
 5440SOL     MW21760   5.871   0.697   2.874
 5441SOL     OW21761   4.900   3.092   6.072
 5441SOL    HW121762   4.864   3.180   6.066
 5441SOL    HW221763   4.938   3.088   6.159
 5441SOL     MW21764   4.900   3.102   6.081
 5442SOL     OW21765   1.832   1.648   3.274
 5442SOL    HW121766   1.926   1.639   3.291
 5442SOL    HW221767   1.790   1.613   3.352
 5442SOL     MW21768   1.839   1.642   3.285
 5443SOL     OW21769   5.522   0.428   5.493
 5443SOL    HW121770   5.565   0.421   5.408
 5443SOL    HW221771   5.443   0.478   5.476
 5443SOL     MW21772   5.518   0.433   5.481
 5444SOL     OW21773   0.057   0.281   2.624
 5444SOL    HW121774  -0.026   0.290   2.576
 5444SOL    HW221775   0.060   0.189   2.649
 5444SOL     MW21776   0.047   0.271   2.621
 5445SOL     OW21777   5.602   3.185   4.047
 5445SOL    HW121778   5.566   3.136   4.121
 5445SOL    HW221779   5.532   3.243   4.021
 5445SOL     MW21780   5.589   3.186   4.053
 5446SOL     OW21781   0.543   4.364   4.992
 5446SOL    HW121782   0.514   4.362   5.083
 5446SOL    HW221783   0.492   4.434   4.953
 5446SOL     MW21784   0.533   4.372   4.998
 5447SOL     OW21785   3.144   2.479   5.855
 5447SOL    HW121786   3.074   2.461   5.791
 5447SOL    HW221787   3.213   2.518   5.803
 5447SOL     MW21788   3.144   2.482   5.841
 5448SOL     OW21789   5.632   2.197   3.893
 5448SOL    HW121790   5.664   2.107   3.888
 5448SOL    HW221791   5.568   2.204   3.823
 5448SOL     MW21792   5.628   2.187   3.884
 5449SOL     OW21793   5.053   5.397   5.714
 5449SOL    HW121794   5.104   5.452   5.774
 5449SOL    HW221795   4.990   5.354   5.770
 5449SOL     MW21796   5.052   5.399   5.728
 5450SOL     OW21797   1.349   5.829   4.988
 5450SOL    HW121798   1.321   5.743   5.022
 5450SOL    HW221799   1.330   5.825   4.895
 5450SOL     MW21800   1.343   5.818   4.982
 5451SOL     OW21801   5.997   2.054   4.692
 5451SOL    HW121802   5.985   1.981   4.754
 5451SOL    HW221803   5.951   2.026   4.614
 5451SOL     MW21804   5.990   2.042   4.690
 5452SOL     OW21805   0.396   1.330   4.209
 5452SOL    HW121806   0.471   1.319   4.269
 5452SOL    HW221807   0.434   1.322   4.123
 5452SOL     MW21808   0.410   1.328   4.206
 5453SOL     OW21809   0.755   2.817   3.193
 5453SOL    HW121810   0.665   2.843   3.218
 5453SOL    HW221811   0.785   2.887   3.138
 5453SOL     MW21812   0.747   2.828   3.190
 5454SOL     OW21813   1.111   0.657   4.092
 5454SOL    HW121814   1.047   0.606   4.142
 5454SOL    HW221815   1.190   0.652   4.145
 5454SOL     MW21816   1.113   0.650   4.105
 5455SOL     OW21817   4.180   2.414   5.919
 5455SOL    HW121818   4.266   2.457   5.911
 5455SOL    HW221819   4.131   2.447   5.844
 5455SOL     MW21820   4.185   2.423   5.909
 5456SOL     OW21821   2.115   0.224   5.905
 5456SOL    HW121822   2.136   0.138   5.867
 5456SOL    HW221823   2.113   0.208   5.999
 5456SOL     MW21824   2.117   0.211   5.912
 5457SOL     OW21825   4.125   4.302   2.162
 5457SOL    HW121826   4.180   4.337   2.091
 5457SOL    HW221827   4.181   4.308   2.239
 5457SOL     MW21828   4.139   4.307   2.162
 5458SOL     OW21829   3.655   1.761   3.155
 5458SOL    HW121830   3.603   1.810   3.220
 5458SOL    HW221831   3.590   1.713   3.105
 5458SOL     MW21832   3.641   1.761   3.157
 5459SOL     OW21833   3.909   0.602   5.055
 5459SOL    HW121834   3.832   0.627   5.106
 5459SOL    HW221835   3.894   0.641   4.969
 5459SOL     MW21836   3.898   0.610   5.051
 5460SOL     OW21837   5.735   0.030   3.383
 5460SOL    HW121838   5.788   0.024   3.463
 5460SOL    HW221839   5.654  -0.015   3.405
 5460SOL     MW21840   5.732   0.024   3.395
 5461SOL     OW21841   2.230   3.025   2.849
 5461SOL    HW121842   2.190   2.962   2.788
 5461SOL    HW221843   2.203   2.995   2.935
 5461SOL     MW21844   2.222   3.013   2.852
 5462SOL     OW21845   1.408   1.408   4.923
 5462SOL    HW121846   1.331   1.466   4.915
 5462SOL    HW221847   1.473   1.461   4.966
 5462SOL     MW21848   1.406   1.421   4.927
 5463SOL     OW21849   0.734   3.925   5.796
 5463SOL    HW121850   0.808   3.929   5.735
 5463SOL    HW221851   0.691   4.009   5.788
 5463SOL     MW21852   0.738   3.935   5.788
 5464SOL     OW21853   5.322   0.286   0.697
 5464SOL    HW121854   5.410   0.321   0.682
 5464SOL    HW221855   5.310   0.293   0.791
 5464SOL     MW21856   5.331   0.291   0.707
 5465SOL     OW21857   0.238   5.142   3.067
 5465SOL    HW121858   0.225   5.049   3.088
 5465SOL    HW221859   0.150   5.177   3.065
 5465SOL     MW21860   0.226   5.135   3.069
 5466SOL     OW21861   2.934   0.642   4.970
 5466SOL    HW121862   3.022   0.604   4.981
 5466SOL    HW221863   2.886   0.610   5.045
 5466SOL     MW21864   2.939   0.633   4.980
 5467SOL     OW21865   3.421   2.449   2.650
 5467SOL    HW121866   3.475   2.418   2.577
 5467SOL    HW221867   3.419   2.543   2.640
 5467SOL     MW21868   3.427   2.456   2.640
 5468SOL     OW21869   3.030   1.078   1.975
 5468SOL    HW121870   2.957   1.017   1.988
 5468SOL    HW221871   3.011   1.119   1.892
 5468SOL     MW21872   3.019   1.076   1.967
 5469SOL     OW21873   3.626   3.415   1.651
 5469SOL    HW121874   3.632   3.388   1.743
 5469SOL    HW221875   3.548   3.372   1.619
 5469SOL     MW21876   3.617   3.407   1.658
 5470SOL     OW21877   0.281   1.391   5.473
 5470SOL    HW121878   0.296   1.296   5.473
 5470SOL    HW221879   0.243   1.409   5.387
 5470SOL     MW21880   0.278   1.381   5.462
 5471SOL     OW21881   2.992   0.109   2.164
 5471SOL    HW121882   2.911   0.091   2.115
 5471SOL    HW221883   2.966   0.103   2.255
 5471SOL     MW21884   2.979   0.106   2.168
 5472SOL     OW21885   5.449   1.830   5.554
 5472SOL    HW121886   5.434   1.889   5.628
 5472SOL    HW221887   5.441   1.886   5.478
 5472SOL     MW21888   5.447   1.844   5.554
 5473SOL     OW21889   4.617   3.282   5.054
 5473SOL    HW121890   4.688   3.217   5.046
 5473SOL    HW221891   4.540   3.231   5.074
 5473SOL     MW21892   4.617   3.268   5.055
 5474SOL     OW21893   5.903   1.326   4.530
 5474SOL    HW121894   5.832   1.342   4.466
 5474SOL    HW221895   5.858   1.321   4.614
 5474SOL     MW21896   5.889   1.327   4.532
 5475SOL     OW21897   0.270   5.180   4.369
 5475SOL    HW121898   0.280   5.258   4.315
 5475SOL    HW221899   0.329   5.194   4.442
 5475SOL     MW21900   0.278   5.191   4.371
 5476SOL     OW21901   0.242   3.353   1.446
 5476SOL    HW121902   0.269   3.358   1.353
 5476SOL    HW221903   0.187   3.276   1.451
 5476SOL     MW21904   0.239   3.344   1.435
 5477SOL     OW21905   0.188   5.644   3.915
 5477SOL    HW121906   0.243   5.651   3.994
 5477SOL    HW221907   0.160   5.554   3.914
 5477SOL     MW21908   0.192   5.634   3.925
 5478SOL     OW21909   3.372   3.924   1.100
 5478SOL    HW121910   3.277   3.916   1.091
 5478SOL    HW221911   3.406   3.848   1.055
 5478SOL     MW21912   3.365   3.914   1.094
 5479SOL     OW21913   4.938   5.586   3.676
 5479SOL    HW121914   4.915   5.504   3.721
 5479SOL    HW221915   4.854   5.623   3.652
 5479SOL     MW21916   4.926   5.580   3.679
 5480SOL     OW21917   0.762   2.609   0.083
 5480SOL    HW121918   0.806   2.694   0.094
 5480SOL    HW221919   0.732   2.587   0.170
 5480SOL     MW21920   0.764   2.617   0.095
 5481SOL     OW21921   5.089   2.354   0.409
 5481SOL    HW121922   5.147   2.278   0.420
 5481SOL    HW221923   5.117   2.392   0.327
 5481SOL     MW21924   5.100   2.349   0.401
 5482SOL     OW21925   4.066   2.476   5.168
 5482SOL    HW121926   4.113   2.424   5.102
 5482SOL    HW221927   4.017   2.539   5.117
 5482SOL     MW21928   4.066   2.477   5.153
 5483SOL     OW21929   0.723   4.230   5.805
 5483SOL    HW121930   0.667   4.250   5.729
 5483SOL    HW221931   0.807   4.268   5.782
 5483SOL     MW21932   0.726   4.237   5.793
 5484SOL     OW21933   2.045   4.783   5.663
 5484SOL    HW121934   2.120   4.741   5.620
 5484SOL    HW221935   1.999   4.711   5.705
 5484SOL     MW21936   2.049   4.769   5.663
 5485SOL     OW21937   3.590   5.927   1.145
 5485SOL    HW121938   3.646   5.848   1.140
 5485SOL    HW221939   3.573   5.936   1.238
 5485SOL     MW21940   3.595   5.918   1.155
 5486SOL     OW21941   3.405   3.478   1.072
 5486SOL    HW121942   3.492   3.478   1.030
 5486SOL    HW221943   3.352   3.423   1.015
 5486SOL     MW21944   3.410   3.472   1.060
 5487SOL     OW21945   3.588   2.015   4.248
 5487SOL    HW121946   3.603   2.089   4.188
 5487SOL    HW221947   3.521   2.047   4.307
 5487SOL     MW21948   3.582   2.028   4.248
 5488SOL     OW21949   4.446   2.770   4.806
 5488SOL    HW121950   4.527   2.768   4.755
 5488SOL    HW221951   4.418   2.679   4.809
 5488SOL     MW21952   4.452   2.759   4.800
 5489SOL     OW21953   2.084   4.953   5.402
 5489SOL    HW121954   2.035   5.001   5.335
 5489SOL    HW221955   2.095   5.016   5.472
 5489SOL     MW21956   2.079   4.966   5.402
 5490SOL     OW21957   0.640   5.037   5.809
 5490SOL    HW121958   0.719   4.985   5.792
 5490SOL    HW221959   0.648   5.061   5.901
 5490SOL     MW21960   0.651   5.034   5.818
 5491SOL     OW21961   2.909   6.052   3.278
 5491SOL    HW121962   2.929   6.051   3.184
 5491SOL    HW221963   2.987   6.016   3.319
 5491SOL     MW21964   2.921   6.048   3.271
 5492SOL     OW21965   2.090   0.070   2.716
 5492SOL    HW121966   2.130  -0.005   2.671
 5492SOL    HW221967   2.110   0.056   2.808
 5492SOL     MW21968   2.098   0.059   2.721
 5493SOL     OW21969   3.307   5.660   5.080
 5493SOL    HW121970   3.212   5.656   5.068
 5493SOL    HW221971   3.341   5.669   4.992
 5493SOL     MW21972   3.300   5.660   5.068
 5494SOL     OW21973   0.779   2.743   0.482
 5494SOL    HW121974   0.852   2.765   0.541
 5494SOL    HW221975   0.701   2.769   0.531
 5494SOL     MW21976   0.778   2.749   0.495
 5495SOL     OW21977   1.694   1.607   0.053
 5495SOL    HW121978   1.755   1.535   0.067
 5495SOL    HW221979   1.741   1.668  -0.004
 5495SOL     MW21980   1.707   1.606   0.048
 5496SOL     OW21981   2.985   1.472   1.815
 5496SOL    HW121982   3.039   1.511   1.745
 5496SOL    HW221983   3.048   1.441   1.879
 5496SOL     MW21984   2.999   1.473   1.814
 5497SOL     OW21985   2.113   3.933   5.682
 5497SOL    HW121986   2.161   3.995   5.626
 5497SOL    HW221987   2.042   3.903   5.626
 5497SOL     MW21988   2.110   3.937   5.668
 5498SOL     OW21989   2.054   5.339   4.401
 5498SOL    HW121990   2.092   5.252   4.414
 5498SOL    HW221991   2.034   5.369   4.489
 5498SOL     MW21992   2.057   5.332   4.413
 5499SOL     OW21993   2.341   5.113   5.290
 5499SOL    HW121994   2.293   5.065   5.358
 5499SOL    HW221995   2.274   5.140   5.228
 5499SOL     MW21996   2.327   5.111   5.291
 5500SOL     OW21997   2.480   2.958   3.041
 5500SOL    HW121998   2.453   2.955   3.133
 5500SOL    HW221999   2.562   2.910   3.039
 5500SOL     MW22000   2.486   2.952   3.052
 5501SOL     OW22001   5.454   5.235   3.702
 5501SOL    HW122002   5.496   5.191   3.626
 5501SOL    HW222003   5.485   5.186   3.777
 5501SOL     MW22004   5.463   5.224   3.701
 5502SOL     OW22005   4.382   1.360   0.095
 5502SOL    HW122006   4.321   1.421   0.054
 5502SOL    HW222007   4.371   1.374   0.188
 5502SOL     MW22008   4.373   1.369   0.101
 5503SOL     OW22009   1.072   4.365   5.380
 5503SOL    HW122010   1.044   4.445   5.334
 5503SOL    HW222011   1.087   4.393   5.469
 5503SOL     MW22012   1.070   4.378   5.385
 5504SOL     OW22013   5.878   0.208   2.177
 5504SOL    HW122014   5.922   0.294   2.178
 5504SOL    HW222015   5.786   0.229   2.182
 5504SOL     MW22016   5.873   0.221   2.178
 5505SOL     OW22017   4.568   2.723   1.558
 5505SOL    HW122018   4.509   2.786   1.516
 5505SOL    HW222019   4.591   2.663   1.488
 5505SOL     MW22020   4.564   2.723   1.544
 5506SOL     OW22021   0.646   4.133   3.337
 5506SOL    HW122022   0.723   4.181   3.371
 5506SOL    HW222023   0.673   4.042   3.337
 5506SOL     MW22024   0.659   4.128   3.341
 5507SOL     OW22025   0.747   1.129   0.234
 5507SOL    HW122026   0.718   1.133   0.143
 5507SOL    HW222027   0.804   1.052   0.237
 5507SOL     MW22028   0.751   1.120   0.223
 5508SOL     OW22029   2.106   2.184   0.258
 5508SOL    HW122030   2.130   2.097   0.292
 5508SOL    HW222031   2.174   2.241   0.291
 5508SOL     MW22032   2.117   2.180   0.266
 5509SOL     OW22033   3.252   0.807   0.589
 5509SOL    HW122034   3.279   0.721   0.623
 5509SOL    HW222035   3.251   0.796   0.495
 5509SOL     MW22036   3.255   0.795   0.582
 5510SOL     OW22037   4.994   2.384   4.733
 5510SOL    HW122038   5.042   2.309   4.699
 5510SOL    HW222039   4.972   2.360   4.823
 5510SOL     MW22040   4.997   2.372   4.740
 5511SOL     OW22041   3.698   4.559   5.479
 5511SOL    HW122042   3.641   4.628   5.516
 5511SOL    HW222043   3.642   4.482   5.476
 5511SOL     MW22044   3.684   4.558   5.483
 5512SOL     OW22045   4.899   3.548   2.275
 5512SOL    HW122046   4.850   3.623   2.241
 5512SOL    HW222047   4.890   3.481   2.208
 5512SOL     MW22048   4.892   3.549   2.263
 5513SOL     OW22049   5.889   1.506   6.106
 5513SOL    HW122050   5.973   1.535   6.144
 5513SOL    HW222051   5.902   1.511   6.013
 5513SOL     MW22052   5.901   1.510   6.100
 5514SOL     OW22053   4.502   0.466   2.630
 5514SOL    HW122054   4.430   0.522   2.661
 5514SOL    HW222055   4.527   0.504   2.547
 5514SOL     MW22056   4.496   0.477   2.624
 5515SOL     OW22057   5.762   3.571   3.891
 5515SOL    HW122058   5.782   3.483   3.855
 5515SOL    HW222059   5.672   3.564   3.921
 5515SOL     MW22060   5.754   3.559   3.890
 5516SOL     OW22061   2.061   3.565   2.470
 5516SOL    HW122062   2.157   3.562   2.462
 5516SOL    HW222063   2.033   3.611   2.392
 5516SOL     MW22064   2.070   3.570   2.460
 5517SOL     OW22065   5.885   6.086   5.163
 5517SOL    HW122066   5.968   6.046   5.136
 5517SOL    HW222067   5.886   6.080   5.258
 5517SOL     MW22068   5.895   6.080   5.171
 5518SOL     OW22069   1.884   2.435   0.753
 5518SOL    HW122070   1.900   2.453   0.846
 5518SOL    HW222071   1.808   2.488   0.732
 5518SOL     MW22072   1.877   2.443   0.762
 5519SOL     OW22073   2.236   6.017   4.980
 5519SOL    HW122074   2.156   6.017   5.033
 5519SOL    HW222075   2.212   5.969   4.901
 5519SOL     MW22076   2.223   6.011   4.977
 5520SOL     OW22077   3.821   4.723   5.595
 5520SOL    HW122078   3.847   4.691   5.508
 5520SOL    HW222079   3.740   4.676   5.613
 5520SOL     MW22080   3.815   4.713   5.586
 5521SOL     OW22081   4.813   4.607   5.046
 5521SOL    HW122082   4.748   4.627   5.114
 5521SOL    HW222083   4.869   4.541   5.087
 5521SOL     MW22084   4.811   4.602   5.059
 5522SOL     OW22085   5.120   1.166   3.421
 5522SOL    HW122086   5.084   1.106   3.355
 5522SOL    HW222087   5.213   1.165   3.405
 5522SOL     MW22088   5.127   1.159   3.411
 5523SOL     OW22089   4.444   2.668   1.089
 5523SOL    HW122090   4.453   2.759   1.117
 5523SOL    HW222091   4.471   2.668   0.998
 5523SOL     MW22092   4.448   2.679   1.081
 5524SOL     OW22093   1.945   5.650   0.285
 5524SOL    HW122094   1.888   5.597   0.340
 5524SOL    HW222095   1.974   5.590   0.217
 5524SOL     MW22096   1.942   5.636   0.283
 5525SOL     OW22097   5.814   5.298   5.780
 5525SOL    HW122098   5.797   5.204   5.793
 5525SOL    HW222099   5.902   5.311   5.812
 5525SOL     MW22100   5.822   5.288   5.785
 5526SOL     OW22101   0.010   2.247   0.247
 5526SOL    HW122102  -0.010   2.332   0.207
 5526SOL    HW222103   0.037   2.269   0.336
 5526SOL     MW22104   0.011   2.260   0.253
 5527SOL     OW22105   5.257   5.550   4.998
 5527SOL    HW122106   5.327   5.502   5.043
 5527SOL    HW222107   5.191   5.483   4.981
 5527SOL     MW22108   5.258   5.536   5.002
 5528SOL     OW22109   4.239   4.400   1.933
 5528SOL    HW122110   4.310   4.460   1.961
 5528SOL    HW222111   4.236   4.409   1.839
 5528SOL     MW22112   4.248   4.409   1.926
 5529SOL     OW22113   0.697   1.853   0.574
 5529SOL    HW122114   0.619   1.877   0.626
 5529SOL    HW222115   0.691   1.759   0.567
 5529SOL     MW22116   0.686   1.845   0.579
 5530SOL     OW22117   0.469   4.993   1.446
 5530SOL    HW122118   0.547   5.050   1.440
 5530SOL    HW222119   0.396   5.053   1.450
 5530SOL     MW22120   0.470   5.007   1.446
 5531SOL     OW22121   1.470   3.567   5.480
 5531SOL    HW122122   1.499   3.649   5.439
 5531SOL    HW222123   1.382   3.586   5.510
 5531SOL     MW22124   1.464   3.579   5.479
 5532SOL     OW22125   2.614   2.211   4.147
 5532SOL    HW122126   2.564   2.200   4.228
 5532SOL    HW222127   2.704   2.196   4.172
 5532SOL     MW22128   2.618   2.208   4.160
 5533SOL     OW22129   0.260   4.644   1.640
 5533SOL    HW122130   0.232   4.552   1.645
 5533SOL    HW222131   0.323   4.653   1.710
 5533SOL     MW22132   0.264   4.634   1.649
 5534SOL     OW22133   0.237   3.061   5.806
 5534SOL    HW122134   0.309   3.115   5.770
 5534SOL    HW222135   0.267   3.039   5.893
 5534SOL     MW22136   0.250   3.065   5.812
 5535SOL     OW22137   4.801   3.985   0.037
 5535SOL    HW122138   4.849   3.965   0.119
 5535SOL    HW222139   4.752   4.064   0.058
 5535SOL     MW22140   4.801   3.992   0.050
 5536SOL     OW22141   0.963   3.645   4.885
 5536SOL    HW122142   0.877   3.666   4.846
 5536SOL    HW222143   0.945   3.636   4.978
 5536SOL     MW22144   0.950   3.646   4.891
 5537SOL     OW22145   4.439   1.724   5.113
 5537SOL    HW122146   4.515   1.709   5.170
 5537SOL    HW222147   4.472   1.714   5.025
 5537SOL     MW22148   4.452   1.721   5.110
 5538SOL     OW22149   5.586   5.248   1.868
 5538SOL    HW122150   5.577   5.184   1.797
 5538SOL    HW222151   5.542   5.326   1.834
 5538SOL     MW22152   5.579   5.250   1.855
 5539SOL     OW22153   0.042   2.295   1.988
 5539SOL    HW122154   0.076   2.205   1.993
 5539SOL    HW222155   0.096   2.344   2.048
 5539SOL     MW22156   0.053   2.289   1.995
 5540SOL     OW22157   1.446   5.533   0.691
 5540SOL    HW122158   1.532   5.506   0.655
 5540SOL    HW222159   1.426   5.613   0.645
 5540SOL     MW22160   1.454   5.539   0.681
 5541SOL     OW22161   3.608   1.621   5.145
 5541SOL    HW122162   3.612   1.526   5.130
 5541SOL    HW222163   3.591   1.629   5.238
 5541SOL     MW22164   3.607   1.610   5.154
 5542SOL     OW22165   5.945   5.650   5.631
 5542SOL    HW122166   5.911   5.609   5.551
 5542SOL    HW222167   6.032   5.679   5.607
 5542SOL     MW22168   5.951   5.649   5.618
 5543SOL     OW22169   4.398   0.925   4.098
 5543SOL    HW122170   4.357   1.005   4.131
 5543SOL    HW222171   4.490   0.946   4.092
 5543SOL     MW22172   4.404   0.937   4.102
 5544SOL     OW22173   3.511   3.591   0.196
 5544SOL    HW122174   3.557   3.634   0.123
 5544SOL    HW222175   3.579   3.573   0.259
 5544SOL     MW22176   3.525   3.594   0.194
 5545SOL     OW22177   4.349   3.078   3.851
 5545SOL    HW122178   4.268   3.066   3.801
 5545SOL    HW222179   4.405   3.130   3.794
 5545SOL     MW22180   4.346   3.083   3.839
 5546SOL     OW22181   3.589   4.286   0.297
 5546SOL    HW122182   3.651   4.359   0.286
 5546SOL    HW222183   3.634   4.225   0.353
 5546SOL     MW22184   3.601   4.288   0.302
 5547SOL     OW22185   5.424   0.013   0.719
 5547SOL    HW122186   5.334  -0.003   0.687
 5547SOL    HW222187   5.437   0.106   0.707
 5547SOL     MW22188   5.414   0.022   0.713
 5548SOL     OW22189   0.890   4.144   5.258
 5548SOL    HW122190   0.867   4.237   5.263
 5548SOL    HW222191   0.869   4.111   5.345
 5548SOL     MW22192   0.885   4.151   5.269
 5549SOL     OW22193   1.718   4.143   5.707
 5549SOL    HW122194   1.718   4.207   5.778
 5549SOL    HW222195   1.802   4.154   5.665
 5549SOL     MW22196   1.728   4.152   5.711
 5550SOL     OW22197   3.797   0.172   2.497
 5550SOL    HW122198   3.721   0.123   2.463
 5550SOL    HW222199   3.860   0.105   2.517
 5550SOL     MW22200   3.795   0.158   2.495
 5551SOL     OW22201   4.217   1.376   0.769
 5551SOL    HW122202   4.302   1.359   0.728
 5551SOL    HW222203   4.238   1.424   0.848
 5551SOL     MW22204   4.230   1.379   0.774
 5552SOL     OW22205   4.893   4.746   3.379
 5552SOL    HW122206   4.935   4.662   3.357
 5552SOL    HW222207   4.864   4.734   3.469
 5552SOL     MW22208   4.894   4.734   3.387
 5553SOL     OW22209   4.523   5.222   0.770
 5553SOL    HW122210   4.495   5.174   0.849
 5553SOL    HW222211   4.604   5.180   0.745
 5553SOL     MW22212   4.529   5.211   0.777
 5554SOL     OW22213   5.170   4.848   0.576
 5554SOL    HW122214   5.125   4.907   0.515
 5554SOL    HW222215   5.109   4.837   0.648
 5554SOL     MW22216   5.158   4.854   0.577
 5555SOL     OW22217   3.142   4.100   0.925
 5555SOL    HW122218   3.230   4.132   0.948
 5555SOL    HW222219   3.088   4.179   0.924
 5555SOL     MW22220   3.146   4.113   0.928
 5556SOL     OW22221   0.958   2.659   0.289
 5556SOL    HW122222   0.996   2.631   0.373
 5556SOL    HW222223   1.007   2.737   0.266
 5556SOL     MW22224   0.969   2.665   0.297
 5557SOL     OW22225   2.455   0.849   4.594
 5557SOL    HW122226   2.530   0.908   4.583
 5557SOL    HW222227   2.391   0.901   4.641
 5557SOL     MW22228   2.456   0.862   4.598
 5558SOL     OW22229   6.076   5.202   0.419
 5558SOL    HW122230   6.129   5.281   0.434
 5558SOL    HW222231   6.030   5.219   0.338
 5558SOL     MW22232   6.077   5.213   0.411
 5559SOL     OW22233   5.737   2.539   5.237
 5559SOL    HW122234   5.665   2.540   5.173
 5559SOL    HW222235   5.710   2.477   5.303
 5559SOL     MW22236   5.725   2.532   5.237
 5560SOL     OW22237   5.937   5.131   2.753
 5560SOL    HW122238   5.889   5.052   2.779
 5560SOL    HW222239   6.003   5.100   2.693
 5560SOL     MW22240   5.939   5.118   2.749
 5561SOL     OW22241   0.629   5.210   3.493
 5561SOL    HW122242   0.725   5.201   3.490
 5561SOL    HW222243   0.611   5.237   3.582
 5561SOL     MW22244   0.638   5.212   3.504
 5562SOL     OW22245   5.311   0.178   4.786
 5562SOL    HW122246   5.278   0.142   4.703
 5562SOL    HW222247   5.251   0.144   4.852
 5562SOL     MW22248   5.300   0.170   4.784
 5563SOL     OW22249   5.358   1.640   0.325
 5563SOL    HW122250   5.272   1.664   0.291
 5563SOL    HW222251   5.417   1.654   0.252
 5563SOL     MW22252   5.355   1.644   0.312
 5564SOL     OW22253   0.947   3.028   0.768
 5564SOL    HW122254   0.999   2.949   0.748
 5564SOL    HW222255   0.906   3.009   0.851
 5564SOL     MW22256   0.948   3.016   0.775
 5565SOL     OW22257   4.395   0.158   5.807
 5565SOL    HW122258   4.409   0.063   5.812
 5565SOL    HW222259   4.311   0.167   5.764
 5565SOL     MW22260   4.387   0.148   5.803
 5566SOL     OW22261   0.719   3.437   3.058
 5566SOL    HW122262   0.669   3.411   2.980
 5566SOL    HW222263   0.679   3.388   3.129
 5566SOL     MW22264   0.708   3.428   3.057
 5567SOL     OW22265   3.548   0.714   4.115
 5567SOL    HW122266   3.489   0.722   4.190
 5567SOL    HW222267   3.595   0.633   4.130
 5567SOL     MW22268   3.546   0.706   4.126
 5568SOL     OW22269   4.207   1.549   4.029
 5568SOL    HW122270   4.233   1.572   4.119
 5568SOL    HW222271   4.276   1.584   3.974
 5568SOL     MW22272   4.218   1.556   4.033
 5569SOL     OW22273   5.120   1.432   5.771
 5569SOL    HW122274   5.090   1.341   5.773
 5569SOL    HW222275   5.078   1.473   5.846
 5569SOL     MW22276   5.111   1.426   5.780
 5570SOL     OW22277   5.711   3.999   1.902
 5570SOL    HW122278   5.696   3.907   1.926
 5570SOL    HW222279   5.740   3.995   1.811
 5570SOL     MW22280   5.713   3.988   1.894
 5571SOL     OW22281   4.852   2.037   1.448
 5571SOL    HW122282   4.810   2.123   1.435
 5571SOL    HW222283   4.876   2.036   1.540
 5571SOL     MW22284   4.850   2.048   1.457
 5572SOL     OW22285   3.010   0.826   5.954
 5572SOL    HW122286   2.918   0.803   5.971
 5572SOL    HW222287   3.059   0.781   6.021
 5572SOL     MW22288   3.005   0.818   5.964
 5573SOL     OW22289   2.603   0.603   5.334
 5573SOL    HW122290   2.547   0.672   5.371
 5573SOL    HW222291   2.689   0.642   5.330
 5573SOL     MW22292   2.606   0.616   5.338
 5574SOL     OW22293   0.618   5.029   2.702
 5574SOL    HW122294   0.554   4.961   2.680
 5574SOL    HW222295   0.688   5.016   2.638
 5574SOL     MW22296   0.619   5.019   2.692
 5575SOL     OW22297   4.551   2.370   2.419
 5575SOL    HW122298   4.635   2.372   2.372
 5575SOL    HW222299   4.502   2.442   2.381
 5575SOL     MW22300   4.555   2.379   2.408
 5576SOL     OW22301   4.872   3.986   5.614
 5576SOL    HW122302   4.828   3.909   5.575
 5576SOL    HW222303   4.955   3.991   5.568
 5576SOL     MW22304   4.876   3.977   5.604
 5577SOL     OW22305   1.572   1.551   3.258
 5577SOL    HW122306   1.513   1.619   3.291
 5577SOL    HW222307   1.651   1.597   3.236
 5577SOL     MW22308   1.574   1.565   3.260
 5578SOL     OW22309   5.986   4.216   0.311
 5578SOL    HW122310   5.915   4.281   0.319
 5578SOL    HW222311   5.985   4.171   0.394
 5578SOL     MW22312   5.977   4.218   0.321
 5579SOL     OW22313   2.075   1.398   1.993
 5579SOL    HW122314   2.022   1.402   1.913
 5579SOL    HW222315   2.150   1.345   1.969
 5579SOL     MW22316   2.077   1.393   1.980
 5580SOL     OW22317   2.326   1.194   2.492
 5580SOL    HW122318   2.329   1.273   2.438
 5580SOL    HW222319   2.253   1.209   2.552
 5580SOL     MW22320   2.317   1.205   2.493
 5581SOL     OW22321   4.784   0.246   4.460
 5581SOL    HW122322   4.858   0.290   4.503
 5581SOL    HW222323   4.722   0.232   4.530
 5581SOL     MW22324   4.786   0.250   4.474
 5582SOL     OW22325   0.600   0.034   4.288
 5582SOL    HW122326   0.588  -0.043   4.232
 5582SOL    HW222327   0.639  -0.001   4.367
 5582SOL     MW22328   0.603   0.020   4.290
 5583SOL     OW22329   2.132   2.191   0.033
 5583SOL    HW122330   2.074   2.117   0.011
 5583SOL    HW222331   2.072   2.262   0.053
 5583SOL     MW22332   2.117   2.191   0.033
 5584SOL     OW22333   3.716   2.831   5.511
 5584SOL    HW122334   3.800   2.825   5.464
 5584SOL    HW222335   3.685   2.741   5.514
 5584SOL     MW22336   3.723   2.820   5.506
 5585SOL     OW22337   4.501   1.298   0.841
 5585SOL    HW122338   4.505   1.361   0.914
 5585SOL    HW222339   4.456   1.344   0.772
 5585SOL     MW22340   4.496   1.311   0.842
 5586SOL     OW22341   2.673   2.666   2.935
 5586SOL    HW122342   2.643   2.601   2.999
 5586SOL    HW222343   2.679   2.617   2.853
 5586SOL     MW22344   2.670   2.652   2.933
 5587SOL     OW22345   3.402   2.712   3.889
 5587SOL    HW122346   3.372   2.621   3.882
 5587SOL    HW222347   3.365   2.742   3.970
 5587SOL     MW22348   3.394   2.704   3.898
 5588SOL     OW22349   2.337   4.080   5.860
 5588SOL    HW122350   2.351   4.002   5.915
 5588SOL    HW222351   2.354   4.049   5.772
 5588SOL     MW22352   2.341   4.067   5.856
 5589SOL     OW22353   1.087   0.194   5.585
 5589SOL    HW122354   1.073   0.265   5.521
 5589SOL    HW222355   1.131   0.237   5.658
 5589SOL     MW22356   1.090   0.208   5.586
 5590SOL     OW22357   0.277   0.828   5.261
 5590SOL    HW122358   0.283   0.806   5.354
 5590SOL    HW222359   0.363   0.807   5.227
 5590SOL     MW22360   0.288   0.822   5.268
 5591SOL     OW22361   0.725   0.735   4.000
 5591SOL    HW122362   0.774   0.692   4.070
 5591SOL    HW222363   0.747   0.686   3.922
 5591SOL     MW22364   0.733   0.723   4.000
 5592SOL     OW22365   3.758   2.514   3.803
 5592SOL    HW122366   3.785   2.580   3.739
 5592SOL    HW222367   3.705   2.453   3.753
 5592SOL     MW22368   3.755   2.515   3.789
 5593SOL     OW22369   2.165   0.882   0.115
 5593SOL    HW122370   2.238   0.845   0.065
 5593SOL    HW222371   2.193   0.969   0.138
 5593SOL     MW22372   2.177   0.887   0.112
 5594SOL     OW22373   3.220   0.440   1.789
 5594SOL    HW122374   3.193   0.389   1.866
 5594SOL    HW222375   3.309   0.410   1.772
 5594SOL     MW22376   3.228   0.430   1.797
 5595SOL     OW22377   1.502   2.270   4.862
 5595SOL    HW122378   1.419   2.282   4.816
 5595SOL    HW222379   1.531   2.184   4.835
 5595SOL     MW22380   1.496   2.261   4.853
 5596SOL     OW22381   1.624   5.467   0.013
 5596SOL    HW122382   1.646   5.547  -0.036
 5596SOL    HW222383   1.655   5.485   0.101
 5596SOL     MW22384   1.631   5.479   0.017
 5597SOL     OW22385   0.535   1.143   2.516
 5597SOL    HW122386   0.502   1.186   2.436
 5597SOL    HW222387   0.486   1.184   2.586
 5597SOL     MW22388   0.525   1.153   2.514
 5598SOL     OW22389   3.629   3.217   5.465
 5598SOL    HW122390   3.726   3.215   5.464
 5598SOL    HW222391   3.605   3.163   5.391
 5598SOL     MW22392   3.638   3.210   5.456
 5599SOL     OW22393   1.660   5.493   2.391
 5599SOL    HW122394   1.727   5.545   2.436
 5599SOL    HW222395   1.661   5.527   2.302
 5599SOL     MW22396   1.669   5.503   2.386
 5600SOL     OW22397   5.471   2.701   0.760
 5600SOL    HW122398   5.515   2.695   0.674
 5600SOL    HW222399   5.413   2.625   0.762
 5600SOL     MW22400   5.470   2.691   0.750
 5601SOL     OW22401   5.013   2.938   5.759
 5601SOL    HW122402   4.930   2.940   5.711
 5601SOL    HW222403   5.079   2.949   5.691
 5601SOL     MW22404   5.011   2.940   5.745
 5602SOL     OW22405   1.545   1.123   5.330
 5602SOL    HW122406   1.543   1.066   5.253
 5602SOL    HW222407   1.576   1.206   5.296
 5602SOL     MW22408   1.549   1.126   5.316
 5603SOL     OW22409   2.036   1.160   2.856
 5603SOL    HW122410   2.084   1.244   2.857
 5603SOL    HW222411   1.946   1.186   2.844
 5603SOL     MW22412   2.031   1.174   2.855
 5604SOL     OW22413   1.851   1.848   0.696
 5604SOL    HW122414   1.919   1.907   0.728
 5604SOL    HW222415   1.775   1.904   0.685
 5604SOL     MW22416   1.850   1.862   0.699
 5605SOL     OW22417   2.703   1.284   3.344
 5605SOL    HW122418   2.762   1.336   3.288
 5605SOL    HW222419   2.687   1.205   3.294
 5605SOL     MW22420   2.708   1.281   3.331
 5606SOL     OW22421   5.230   0.800   1.472
 5606SOL    HW122422   5.212   0.890   1.502
 5606SOL    HW222423   5.143   0.761   1.464
 5606SOL     MW22424   5.217   0.807   1.475
 5607SOL     OW22425   5.008   1.539   4.363
 5607SOL    HW122426   5.094   1.580   4.380
 5607SOL    HW222427   4.998   1.475   4.432
 5607SOL     MW22428   5.017   1.537   4.374
 5608SOL     OW22429   0.700   0.505   3.369
 5608SOL    HW122430   0.641   0.434   3.343
 5608SOL    HW222431   0.707   0.560   3.292
 5608SOL     MW22432   0.693   0.503   3.357
 5609SOL     OW22433   2.989   4.858   5.252
 5609SOL    HW122434   2.911   4.804   5.268
 5609SOL    HW222435   2.974   4.897   5.167
 5609SOL     MW22436   2.978   4.856   5.244
 5610SOL     OW22437   3.053   5.708   0.142
 5610SOL    HW122438   3.072   5.640   0.076
 5610SOL    HW222439   3.082   5.670   0.224
 5610SOL     MW22440   3.059   5.695   0.143
 5611SOL     OW22441   4.152   4.630   2.223
 5611SOL    HW122442   4.155   4.683   2.304
 5611SOL    HW222443   4.064   4.593   2.223
 5611SOL     MW22444   4.142   4.632   2.233
 5612SOL     OW22445   2.482   2.969   4.664
 5612SOL    HW122446   2.413   3.008   4.719
 5612SOL    HW222447   2.437   2.948   4.583
 5612SOL     MW22448   2.468   2.971   4.661
 5613SOL     OW22449   1.086   2.366   0.183
 5613SOL    HW122450   1.015   2.310   0.215
 5613SOL    HW222451   1.081   2.360   0.089
 5613SOL     MW22452   1.077   2.359   0.176
 5614SOL     OW22453   2.375   2.358   0.222
 5614SOL    HW122454   2.417   2.374   0.136
 5614SOL    HW222455   2.325   2.437   0.238
 5614SOL     MW22456   2.374   2.369   0.213
 5615SOL     OW22457   3.202   2.482   5.552
 5615SOL    HW122458   3.240   2.570   5.560
 5615SOL    HW222459   3.197   2.450   5.641
 5615SOL     MW22460   3.206   2.489   5.563
 5616SOL     OW22461   1.771   2.575   2.765
 5616SOL    HW122462   1.709   2.637   2.805
 5616SOL    HW222463   1.843   2.570   2.826
 5616SOL     MW22464   1.771   2.582   2.777
 5617SOL     OW22465   4.118   5.202   1.554
 5617SOL    HW122466   4.131   5.201   1.459
 5617SOL    HW222467   4.168   5.128   1.585
 5617SOL     MW22468   4.125   5.193   1.546
 5618SOL     OW22469   4.712   2.171   4.797
 5618SOL    HW122470   4.633   2.134   4.757
 5618SOL    HW222471   4.699   2.161   4.890
 5618SOL     MW22472   4.701   2.165   4.803
 5619SOL     OW22473   3.508   1.396   1.066
 5619SOL    HW122474   3.569   1.402   0.992
 5619SOL    HW222475   3.509   1.304   1.090
 5619SOL     MW22476   3.515   1.386   1.060
 5620SOL     OW22477   5.664   1.031   1.151
 5620SOL    HW122478   5.618   1.084   1.085
 5620SOL    HW222479   5.617   1.048   1.231
 5620SOL     MW22480   5.653   1.040   1.152
 5621SOL     OW22481   4.043   3.982   4.633
 5621SOL    HW122482   4.094   3.936   4.566
 5621SOL    HW222483   3.953   3.977   4.602
 5621SOL     MW22484   4.038   3.976   4.622
 5622SOL     OW22485   3.640   5.363   0.400
 5622SOL    HW122486   3.657   5.337   0.309
 5622SOL    HW222487   3.639   5.281   0.447
 5622SOL     MW22488   3.642   5.350   0.394
 5623SOL     OW22489   1.380   5.570   4.084
 5623SOL    HW122490   1.451   5.509   4.105
 5623SOL    HW222491   1.329   5.525   4.018
 5623SOL     MW22492   1.382   5.557   4.078
 5624SOL     OW22493   1.399   2.396   0.949
 5624SOL    HW122494   1.344   2.472   0.926
 5624SOL    HW222495   1.339   2.322   0.947
 5624SOL     MW22496   1.385   2.397   0.946
 5625SOL     OW22497   1.408   0.167   4.386
 5625SOL    HW122498   1.364   0.100   4.333
 5625SOL    HW222499   1.478   0.198   4.329
 5625SOL     MW22500   1.411   0.162   4.373
 5626SOL     OW22501   4.755   1.189   2.145
 5626SOL    HW122502   4.803   1.106   2.149
 5626SOL    HW222503   4.686   1.180   2.210
 5626SOL     MW22504   4.753   1.178   2.153
 5627SOL     OW22505   0.152   1.711   4.534
 5627SOL    HW122506   0.194   1.642   4.482
 5627SOL    HW222507   0.196   1.706   4.618
 5627SOL     MW22508   0.162   1.702   4.538
 5628SOL     OW22509   1.173   2.745   1.032
 5628SOL    HW122510   1.134   2.830   1.052
 5628SOL    HW222511   1.098   2.690   1.010
 5628SOL     MW22512   1.159   2.749   1.032
 5629SOL     OW22513   5.455   0.738   5.264
 5629SOL    HW122514   5.505   0.817   5.285
 5629SOL    HW222515   5.503   0.698   5.193
 5629SOL     MW22516   5.467   0.743   5.258
 5630SOL     OW22517   3.686   4.998   4.733
 5630SOL    HW122518   3.668   4.904   4.720
 5630SOL    HW222519   3.775   5.001   4.764
 5630SOL     MW22520   3.694   4.987   4.735
 5631SOL     OW22521   2.971   1.457   3.781
 5631SOL    HW122522   2.954   1.486   3.871
 5631SOL    HW222523   2.964   1.362   3.785
 5631SOL     MW22524   2.968   1.449   3.792
 5632SOL     OW22525   2.498   4.698   0.297
 5632SOL    HW122526   2.466   4.736   0.215
 5632SOL    HW222527   2.584   4.736   0.309
 5632SOL     MW22528   2.504   4.708   0.289
 5633SOL     OW22529   1.023   0.466   5.921
 5633SOL    HW122530   0.928   0.462   5.904
 5633SOL    HW222531   1.030   0.469   6.015
 5633SOL     MW22532   1.012   0.466   5.930
 5634SOL     OW22533   0.750   0.951   1.223
 5634SOL    HW122534   0.735   1.045   1.235
 5634SOL    HW222535   0.665   0.912   1.239
 5634SOL     MW22536   0.738   0.958   1.226
 5635SOL     OW22537   0.265   0.483   1.161
 5635SOL    HW122538   0.210   0.420   1.210
 5635SOL    HW222539   0.277   0.442   1.076
 5635SOL     MW22540   0.259   0.470   1.157
 5636SOL     OW22541   0.827   4.030   6.072
 5636SOL    HW122542   0.880   3.998   5.998
 5636SOL    HW222543   0.885   4.022   6.147
 5636SOL     MW22544   0.840   4.025   6.072
 5637SOL     OW22545   1.212   0.279   5.896
 5637SOL    HW122546   1.285   0.256   5.955
 5637SOL    HW222547   1.166   0.348   5.941
 5637SOL     MW22548   1.216   0.284   5.908
 5638SOL     OW22549   5.801   2.006   3.539
 5638SOL    HW122550   5.805   2.100   3.516
 5638SOL    HW222551   5.805   2.005   3.633
 5638SOL     MW22552   5.802   2.017   3.547
 5639SOL     OW22553   0.648   2.319   0.697
 5639SOL    HW122554   0.559   2.335   0.664
 5639SOL    HW222555   0.637   2.314   0.791
 5639SOL     MW22556   0.636   2.321   0.704
 5640SOL     OW22557   1.174   1.349   0.300
 5640SOL    HW122558   1.150   1.426   0.351
 5640SOL    HW222559   1.269   1.354   0.293
 5640SOL     MW22560   1.182   1.359   0.305
 5641SOL     OW22561   0.038   3.648   2.836
 5641SOL    HW122562  -0.042   3.601   2.862
 5641SOL    HW222563   0.032   3.653   2.741
 5641SOL     MW22564   0.028   3.643   2.828
 5642SOL     OW22565   0.677   4.547   0.853
 5642SOL    HW122566   0.608   4.592   0.902
 5642SOL    HW222567   0.652   4.557   0.762
 5642SOL     MW22568   0.666   4.553   0.848
 5643SOL     OW22569   2.757   1.625   3.506
 5643SOL    HW122570   2.782   1.711   3.541
 5643SOL    HW222571   2.668   1.638   3.474
 5643SOL     MW22572   2.749   1.637   3.507
 5644SOL     OW22573   1.843   4.871   0.652
 5644SOL    HW122574   1.827   4.794   0.708
 5644SOL    HW222575   1.925   4.907   0.684
 5644SOL     MW22576   1.851   4.866   0.663
 5645SOL     OW22577   5.660   4.082   2.578
 5645SOL    HW122578   5.639   4.162   2.529
 5645SOL    HW222579   5.635   4.012   2.520
 5645SOL     MW22580   5.654   4.084   2.565
 5646SOL     OW22581   6.014   2.807   2.687
 5646SOL    HW122582   5.921   2.831   2.690
 5646SOL    HW222583   6.057   2.876   2.737
 5646SOL     MW22584   6.008   2.818   2.693
 5647SOL     OW22585   3.656   4.107   2.648
 5647SOL    HW122586   3.653   4.150   2.734
 5647SOL    HW222587   3.727   4.151   2.603
 5647SOL     MW22588   3.664   4.118   2.654
 5648SOL     OW22589   1.603   0.702   0.055
 5648SOL    HW122590   1.548   0.776   0.026
 5648SOL    HW222591   1.629   0.726   0.143
 5648SOL     MW22592   1.599   0.714   0.062
 5649SOL     OW22593   5.709   0.663   3.848
 5649SOL    HW122594   5.720   0.721   3.924
 5649SOL    HW222595   5.633   0.698   3.803
 5649SOL     MW22596   5.702   0.675   3.852
 5650SOL     OW22597   6.064   1.576   2.469
 5650SOL    HW122598   6.123   1.578   2.545
 5650SOL    HW222599   6.003   1.647   2.484
 5650SOL     MW22600   6.064   1.584   2.480
 5651SOL     OW22601   0.370   5.410   2.840
 5651SOL    HW122602   0.361   5.321   2.803
 5651SOL    HW222603   0.463   5.419   2.855
 5651SOL     MW22604   0.380   5.400   2.837
 5652SOL     OW22605   4.438   0.783   5.583
 5652SOL    HW122606   4.410   0.701   5.624
 5652SOL    HW222607   4.428   0.766   5.490
 5652SOL     MW22608   4.433   0.771   5.577
 5653SOL     OW22609   1.472   5.903   3.041
 5653SOL    HW122610   1.386   5.912   3.083
 5653SOL    HW222611   1.454   5.910   2.948
 5653SOL     MW22612   1.459   5.905   3.035
 5654SOL     OW22613   3.776   1.916   4.217
 5654SOL    HW122614   3.805   1.848   4.278
 5654SOL    HW222615   3.847   1.922   4.154
 5654SOL     MW22616   3.788   1.908   4.217
 5655SOL     OW22617   2.405   5.652   4.222
 5655SOL    HW122618   2.448   5.733   4.252
 5655SOL    HW222619   2.407   5.657   4.128
 5655SOL     MW22620   2.410   5.662   4.215
 5656SOL     OW22621   1.796   2.853   5.062
 5656SOL    HW122622   1.859   2.837   4.991
 5656SOL    HW222623   1.821   2.938   5.097
 5656SOL     MW22624   1.807   2.861   5.058
 5657SOL     OW22625   5.617   4.625   0.439
 5657SOL    HW122626   5.597   4.549   0.496
 5657SOL    HW222627   5.544   4.684   0.453
 5657SOL     MW22628   5.606   4.622   0.448
 5658SOL     OW22629   3.229   5.980   2.443
 5658SOL    HW122630   3.164   5.909   2.452
 5658SOL    HW222631   3.265   5.967   2.356
 5658SOL     MW22632   3.225   5.970   2.434
 5659SOL     OW22633   4.533   2.055   3.495
 5659SOL    HW122634   4.528   2.096   3.582
 5659SOL    HW222635   4.582   2.117   3.443
 5659SOL     MW22636   4.539   2.067   3.500
 5660SOL     OW22637   1.417   5.425   1.858
 5660SOL    HW122638   1.478   5.456   1.790
 5660SOL    HW222639   1.409   5.332   1.842
 5660SOL     MW22640   1.424   5.418   1.848
 5661SOL     OW22641   2.990   2.152   3.714
 5661SOL    HW122642   3.016   2.225   3.657
 5661SOL    HW222643   2.898   2.170   3.733
 5661SOL     MW22644   2.982   2.163   3.709
 5662SOL     OW22645   0.579   4.091   3.651
 5662SOL    HW122646   0.541   4.008   3.622
 5662SOL    HW222647   0.628   4.122   3.576
 5662SOL     MW22648   0.580   4.085   3.639
 5663SOL     OW22649   4.072   5.728   3.279
 5663SOL    HW122650   4.045   5.689   3.363
 5663SOL    HW222651   4.037   5.668   3.214
 5663SOL     MW22652   4.064   5.716   3.281
 5664SOL     OW22653   5.539   3.930   1.702
 5664SOL    HW122654   5.584   3.975   1.630
 5664SOL    HW222655   5.551   3.987   1.777
 5664SOL     MW22656   5.546   3.942   1.702
 5665SOL     OW22657   3.323   1.348   4.801
 5665SOL    HW122658   3.385   1.318   4.868
 5665SOL    HW222659   3.263   1.276   4.792
 5665SOL     MW22660   3.324   1.336   4.808
 5666SOL     OW22661   5.769   1.194   2.249
 5666SOL    HW122662   5.807   1.273   2.208
 5666SOL    HW222663   5.773   1.213   2.342
 5666SOL     MW22664   5.774   1.206   2.255
 5667SOL     OW22665   2.241   2.872   2.078
 5667SOL    HW122666   2.158   2.862   2.030
 5667SOL    HW222667   2.307   2.879   2.010
 5667SOL     MW22668   2.239   2.872   2.064
 5668SOL     OW22669   4.934   5.769   4.269
 5668SOL    HW122670   4.966   5.688   4.308
 5668SOL    HW222671   4.933   5.752   4.176
 5668SOL     MW22672   4.938   5.757   4.263
 5669SOL     OW22673   2.994   0.755   2.758
 5669SOL    HW122674   3.055   0.815   2.803
 5669SOL    HW222675   3.022   0.759   2.667
 5669SOL     MW22676   3.005   0.763   2.753
 5670SOL     OW22677   0.443   3.441   1.898
 5670SOL    HW122678   0.478   3.448   1.987
 5670SOL    HW222679   0.349   3.450   1.910
 5670SOL     MW22680   0.436   3.443   1.911
 5671SOL     OW22681   2.606  -0.014   4.194
 5671SOL    HW122682   2.660   0.065   4.191
 5671SOL    HW222683   2.597  -0.040   4.103
 5671SOL     MW22684   2.611  -0.007   4.183
 5672SOL     OW22685   4.143   4.942   0.916
 5672SOL    HW122686   4.172   4.876   0.980
 5672SOL    HW222687   4.152   4.899   0.832
 5672SOL     MW22688   4.148   4.929   0.914
 5673SOL     OW22689   1.233   1.382   3.905
 5673SOL    HW122690   1.177   1.445   3.859
 5673SOL    HW222691   1.295   1.436   3.952
 5673SOL     MW22692   1.233   1.396   3.905
 5674SOL     OW22693   1.874   0.775   2.201
 5674SOL    HW122694   1.799   0.835   2.204
 5674SOL    HW222695   1.886   0.757   2.109
 5674SOL     MW22696   1.866   0.780   2.190
 5675SOL     OW22697   3.015   1.830   4.330
 5675SOL    HW122698   2.943   1.776   4.364
 5675SOL    HW222699   3.002   1.829   4.236
 5675SOL     MW22700   3.004   1.823   4.323
 5676SOL     OW22701   2.868   5.951   1.706
 5676SOL    HW122702   2.948   5.902   1.685
 5676SOL    HW222703   2.899   6.029   1.750
 5676SOL     MW22704   2.881   5.954   1.709
 5677SOL     OW22705   3.118   6.067   3.917
 5677SOL    HW122706   3.175   6.087   3.842
 5677SOL    HW222707   3.176   6.029   3.981
 5677SOL     MW22708   3.132   6.065   3.915
 5678SOL     OW22709   3.839   4.237   4.077
 5678SOL    HW122710   3.785   4.231   3.998
 5678SOL    HW222711   3.777   4.250   4.148
 5678SOL     MW22712   3.825   4.237   4.076
 5679SOL     OW22713   4.432   1.896   3.063
 5679SOL    HW122714   4.363   1.897   2.995
 5679SOL    HW222715   4.423   1.981   3.105
 5679SOL     MW22716   4.422   1.906   3.060
 5680SOL     OW22717   2.098   4.829   2.155
 5680SOL    HW122718   2.111   4.760   2.089
 5680SOL    HW222719   2.068   4.904   2.104
 5680SOL     MW22720   2.096   4.829   2.141
 5681SOL     OW22721   1.126   3.326   4.505
 5681SOL    HW122722   1.188   3.299   4.437
 5681SOL    HW222723   1.165   3.405   4.541
 5681SOL     MW22724   1.138   3.332   4.501
 5682SOL     OW22725   2.166   0.156   5.391
 5682SOL    HW122726   2.140   0.162   5.484
 5682SOL    HW222727   2.182   0.246   5.366
 5682SOL     MW22728   2.165   0.168   5.400
 5683SOL     OW22729   4.310   1.651   2.911
 5683SOL    HW122730   4.284   1.577   2.856
 5683SOL    HW222731   4.320   1.613   2.998
 5683SOL     MW22732   4.308   1.637   2.915
 5684SOL     OW22733   2.341   0.207   4.091
 5684SOL    HW122734   2.398   0.184   4.017
 5684SOL    HW222735   2.307   0.123   4.120
 5684SOL     MW22736   2.344   0.194   4.086
 5685SOL     OW22737   3.245   5.290   2.512
 5685SOL    HW122738   3.311   5.291   2.582
 5685SOL    HW222739   3.291   5.257   2.436
 5685SOL     MW22740   3.258   5.286   2.512
 5686SOL     OW22741   5.090   1.836   4.145
 5686SOL    HW122742   5.054   1.900   4.207
 5686SOL    HW222743   5.015   1.786   4.116
 5686SOL     MW22744   5.077   1.838   4.149
 5687SOL     OW22745   0.340   2.240   3.134
 5687SOL    HW122746   0.354   2.151   3.169
 5687SOL    HW222747   0.261   2.269   3.177
 5687SOL     MW22748   0.332   2.233   3.144
 5688SOL     OW22749   0.539   4.732   5.812
 5688SOL    HW122750   0.563   4.643   5.839
 5688SOL    HW222751   0.613   4.785   5.840
 5688SOL     MW22752   0.551   4.727   5.819
 5689SOL     OW22753   5.488   3.768   2.203
 5689SOL    HW122754   5.398   3.744   2.225
 5689SOL    HW222755   5.537   3.688   2.217
 5689SOL     MW22756   5.483   3.756   2.207
 5690SOL     OW22757   4.268   0.032   1.617
 5690SOL    HW122758   4.236  -0.059   1.618
 5690SOL    HW222759   4.250   0.064   1.704
 5690SOL     MW22760   4.262   0.025   1.627
 5691SOL     OW22761   3.237   4.607   4.878
 5691SOL    HW122762   3.320   4.583   4.920
 5691SOL    HW222763   3.171   4.588   4.944
 5691SOL     MW22764   3.239   4.602   4.891
 5692SOL     OW22765   1.491   4.249   5.906
 5692SOL    HW122766   1.422   4.315   5.896
 5692SOL    HW222767   1.454   4.186   5.966
 5692SOL     MW22768   1.478   4.249   5.911
 5693SOL     OW22769   1.647   3.752   3.069
 5693SOL    HW122770   1.701   3.817   3.116
 5693SOL    HW222771   1.617   3.799   2.992
 5693SOL     MW22772   1.650   3.766   3.066
 5694SOL     OW22773   4.499   4.718   2.888
 5694SOL    HW122774   4.550   4.787   2.932
 5694SOL    HW222775   4.557   4.686   2.821
 5694SOL     MW22776   4.512   4.723   2.886
 5695SOL     OW22777   4.837   6.017   3.460
 5695SOL    HW122778   4.840   6.034   3.555
 5695SOL    HW222779   4.816   6.102   3.422
 5695SOL     MW22780   4.835   6.029   3.467
 5696SOL     OW22781   1.089   1.230   4.379
 5696SOL    HW122782   1.144   1.167   4.331
 5696SOL    HW222783   1.050   1.284   4.312
 5696SOL     MW22784   1.091   1.228   4.365
 5697SOL     OW22785   0.602   3.700   5.007
 5697SOL    HW122786   0.662   3.677   4.935
 5697SOL    HW222787   0.648   3.672   5.085
 5697SOL     MW22788   0.615   3.694   5.008
 5698SOL     OW22789   5.561   0.358   1.873
 5698SOL    HW122790   5.513   0.301   1.934
 5698SOL    HW222791   5.553   0.314   1.789
 5698SOL     MW22792   5.554   0.346   1.870
 5699SOL     OW22793   1.129   6.034   4.267
 5699SOL    HW122794   1.188   6.091   4.317
 5699SOL    HW222795   1.155   5.946   4.293
 5699SOL     MW22796   1.140   6.030   4.276
 5700SOL     OW22797   5.133   5.553   0.904
 5700SOL    HW122798   5.109   5.643   0.930
 5700SOL    HW222799   5.063   5.499   0.937
 5700SOL     MW22800   5.122   5.558   0.911
 5701SOL     OW22801   3.734   0.630   5.539
 5701SOL    HW122802   3.795   0.609   5.610
 5701SOL    HW222803   3.733   0.552   5.485
 5701SOL     MW22804   3.741   0.618   5.541
 5702SOL     OW22805   2.993   3.504   0.929
 5702SOL    HW122806   3.070   3.501   0.871
 5702SOL    HW222807   3.029   3.511   1.016
 5702SOL     MW22808   3.007   3.504   0.932
 5703SOL     OW22809   2.796   0.173   3.981
 5703SOL    HW122810   2.790   0.197   4.074
 5703SOL    HW222811   2.739   0.236   3.938
 5703SOL     MW22812   2.789   0.184   3.987
 5704SOL     OW22813   1.275   5.077   1.137
 5704SOL    HW122814   1.285   5.086   1.233
 5704SOL    HW222815   1.363   5.060   1.106
 5704SOL     MW22816   1.287   5.076   1.145
 5705SOL     OW22817   1.325   4.779   5.738
 5705SOL    HW122818   1.404   4.805   5.787
 5705SOL    HW222819   1.357   4.717   5.673
 5705SOL     MW22820   1.339   4.775   5.736
 5706SOL     OW22821   0.051   3.666   1.206
 5706SOL    HW122822   0.048   3.577   1.242
 5706SOL    HW222823   0.069   3.653   1.114
 5706SOL     MW22824   0.053   3.654   1.200
 5707SOL     OW22825   1.566   3.352   3.061
 5707SOL    HW122826   1.651   3.385   3.091
 5707SOL    HW222827   1.574   3.349   2.966
 5707SOL     MW22828   1.577   3.355   3.053
 5708SOL     OW22829   3.775   2.816   4.027
 5708SOL    HW122830   3.844   2.865   3.979
 5708SOL    HW222831   3.807   2.813   4.116
 5708SOL     MW22832   3.787   2.822   4.031
 5709SOL     OW22833   2.646   4.890   1.008
 5709SOL    HW122834   2.732   4.869   1.046
 5709SOL    HW222835   2.627   4.977   1.040
 5709SOL     MW22836   2.654   4.898   1.016
 5710SOL     OW22837   3.049   5.048   3.174
 5710SOL    HW122838   2.958   5.035   3.148
 5710SOL    HW222839   3.097   4.982   3.126
 5710SOL     MW22840   3.044   5.039   3.165
 5711SOL     OW22841   5.366   4.137   1.437
 5711SOL    HW122842   5.344   4.120   1.345
 5711SOL    HW222843   5.457   4.165   1.434
 5711SOL     MW22844   5.374   4.138   1.425
 5712SOL     OW22845   1.830   5.504   4.888
 5712SOL    HW122846   1.736   5.508   4.907
 5712SOL    HW222847   1.864   5.587   4.920
 5712SOL     MW22848   1.822   5.515   4.894
 5713SOL     OW22849   5.772   1.697   1.969
 5713SOL    HW122850   5.856   1.651   1.985
 5713SOL    HW222851   5.722   1.636   1.917
 5713SOL     MW22852   5.777   1.684   1.965
 5714SOL     OW22853   4.179   4.967   0.091
 5714SOL    HW122854   4.094   5.005   0.115
 5714SOL    HW222855   4.171   4.951  -0.002
 5714SOL     MW22856   4.168   4.969   0.083
 5715SOL     OW22857   5.567   0.467   4.809
 5715SOL    HW122858   5.529   0.556   4.803
 5715SOL    HW222859   5.631   0.464   4.739
 5715SOL     MW22860   5.570   0.478   4.800
 5716SOL     OW22861   5.601   4.387   5.048
 5716SOL    HW122862   5.590   4.401   4.953
 5716SOL    HW222863   5.535   4.322   5.070
 5716SOL     MW22864   5.592   4.381   5.039
 5717SOL     OW22865   5.928   4.835   4.799
 5717SOL    HW122866   5.983   4.914   4.807
 5717SOL    HW222867   5.932   4.795   4.885
 5717SOL     MW22868   5.935   4.840   4.810
 5718SOL     OW22869   5.674   5.890   1.626
 5718SOL    HW122870   5.748   5.830   1.608
 5718SOL    HW222871   5.715   5.975   1.634
 5718SOL     MW22872   5.688   5.893   1.625
 5719SOL     OW22873   4.734   4.700   2.700
 5719SOL    HW122874   4.696   4.621   2.661
 5719SOL    HW222875   4.732   4.684   2.793
 5719SOL     MW22876   4.729   4.689   2.706
 5720SOL     OW22877   5.498   5.861   5.481
 5720SOL    HW122878   5.547   5.852   5.399
 5720SOL    HW222879   5.565   5.859   5.549
 5720SOL     MW22880   5.512   5.860   5.479
 5721SOL     OW22881   5.003   5.491   2.032
 5721SOL    HW122882   5.024   5.576   2.073
 5721SOL    HW222883   5.012   5.508   1.939
 5721SOL     MW22884   5.007   5.503   2.026
 5722SOL     OW22885   4.156   1.383   2.212
 5722SOL    HW122886   4.073   1.407   2.170
 5722SOL    HW222887   4.136   1.383   2.305
 5722SOL     MW22888   4.143   1.386   2.218
 5723SOL     OW22889   0.761   5.989   0.395
 5723SOL    HW122890   0.786   5.898   0.379
 5723SOL    HW222891   0.667   5.985   0.412
 5723SOL     MW22892   0.753   5.977   0.395
 5724SOL     OW22893   0.798   2.532   2.748
 5724SOL    HW122894   0.744   2.599   2.705
 5724SOL    HW222895   0.736   2.478   2.795
 5724SOL     MW22896   0.784   2.534   2.748
 5725SOL     OW22897   2.834   0.554   2.578
 5725SOL    HW122898   2.885   0.479   2.548
 5725SOL    HW222899   2.876   0.580   2.659
 5725SOL     MW22900   2.845   0.548   2.584
 5726SOL     OW22901   5.796   5.501   4.298
 5726SOL    HW122902   5.849   5.546   4.365
 5726SOL    HW222903   5.712   5.490   4.340
 5726SOL     MW22904   5.793   5.505   4.311
 5727SOL     OW22905   0.082   2.361   2.759
 5727SOL    HW122906   0.046   2.431   2.814
 5727SOL    HW222907   0.021   2.355   2.686
 5727SOL     MW22908   0.070   2.369   2.757
 5728SOL     OW22909   4.569   5.704   2.112
 5728SOL    HW122910   4.611   5.737   2.031
 5728SOL    HW222911   4.498   5.764   2.128
 5728SOL     MW22912   4.566   5.715   2.104
 5729SOL     OW22913   3.481   2.605   4.501
 5729SOL    HW122914   3.561   2.657   4.516
 5729SOL    HW222915   3.473   2.552   4.579
 5729SOL     MW22916   3.490   2.605   4.512
 5730SOL     OW22917   1.922   2.787   3.235
 5730SOL    HW122918   1.919   2.874   3.193
 5730SOL    HW222919   1.938   2.727   3.163
 5730SOL     MW22920   1.924   2.791   3.221
 5731SOL     OW22921   4.962   0.264   3.437
 5731SOL    HW122922   4.917   0.329   3.492
 5731SOL    HW222923   4.970   0.308   3.353
 5731SOL     MW22924   4.957   0.277   3.434
 5732SOL     OW22925   4.509   4.765   1.908
 5732SOL    HW122926   4.502   4.857   1.936
 5732SOL    HW222927   4.495   4.769   1.814
 5732SOL     MW22928   4.506   4.777   1.900
 5733SOL     OW22929   3.791   1.108   4.959
 5733SOL    HW122930   3.785   1.025   5.008
 5733SOL    HW222931   3.771   1.084   4.869
 5733SOL     MW22932   3.788   1.095   4.954
 5734SOL     OW22933   3.970   3.487   1.876
 5734SOL    HW122934   4.043   3.425   1.878
 5734SOL    HW222935   3.909   3.450   1.813
 5734SOL     MW22936   3.971   3.475   1.869
 5735SOL     OW22937   4.145   2.987   2.348
 5735SOL    HW122938   4.062   2.976   2.396
 5735SOL    HW222939   4.118   3.003   2.259
 5735SOL     MW22940   4.132   2.988   2.344
 5736SOL     OW22941   5.245   1.509   3.350
 5736SOL    HW122942   5.189   1.555   3.287
 5736SOL    HW222943   5.333   1.527   3.320
 5736SOL     MW22944   5.248   1.517   3.339
 5737SOL     OW22945   2.391   3.903   5.073
 5737SOL    HW122946   2.408   3.930   4.982
 5737SOL    HW222947   2.456   3.836   5.090
 5737SOL     MW22948   2.401   3.898   5.064
 5738SOL     OW22949   2.571   0.152   0.051
 5738SOL    HW122950   2.527   0.216  -0.005
 5738SOL    HW222951   2.540   0.172   0.138
 5738SOL     MW22952   2.562   0.162   0.054
 5739SOL     OW22953   5.923   0.516   1.312
 5739SOL    HW122954   6.012   0.552   1.318
 5739SOL    HW222955   5.895   0.537   1.224
 5739SOL     MW22956   5.931   0.523   1.302
 5740SOL     OW22957   5.640   4.972   4.343
 5740SOL    HW122958   5.646   5.035   4.415
 5740SOL    HW222959   5.654   4.888   4.385
 5740SOL     MW22960   5.642   4.969   4.357
 5741SOL     OW22961   1.143   2.209   0.010
 5741SOL    HW122962   1.231   2.199  -0.028
 5741SOL    HW222963   1.159   2.215   0.103
 5741SOL     MW22964   1.156   2.209   0.016
 5742SOL     OW22965   5.916   2.206   4.103
 5742SOL    HW122966   5.969   2.165   4.034
 5742SOL    HW222967   5.853   2.139   4.128
 5742SOL     MW22968   5.915   2.193   4.097
 5743SOL     OW22969   4.632   4.553   3.912
 5743SOL    HW122970   4.716   4.541   3.958
 5743SOL    HW222971   4.653   4.536   3.821
 5743SOL     MW22972   4.645   4.549   3.907
 5744SOL     OW22973   5.750   0.613   1.398
 5744SOL    HW122974   5.841   0.644   1.401
 5744SOL    HW222975   5.746   0.558   1.321
 5744SOL     MW22976   5.760   0.611   1.390
 5745SOL     OW22977   3.628   0.047   0.335
 5745SOL    HW122978   3.616   0.048   0.239
 5745SOL    HW222979   3.686  -0.026   0.351
 5745SOL     MW22980   3.634   0.039   0.325
 5746SOL     OW22981   0.559   0.007   4.765
 5746SOL    HW122982   0.645  -0.006   4.807
 5746SOL    HW222983   0.580   0.027   4.675
 5746SOL     MW22984   0.572   0.008   4.760
 5747SOL     OW22985   0.512   4.501   1.760
 5747SOL    HW122986   0.590   4.444   1.761
 5747SOL    HW222987   0.501   4.522   1.668
 5747SOL     MW22988   0.520   4.497   1.749
 5748SOL     OW22989   3.574   3.411   2.030
 5748SOL    HW122990   3.631   3.361   1.971
 5748SOL    HW222991   3.617   3.406   2.115
 5748SOL     MW22992   3.586   3.404   2.033
 5749SOL     OW22993   5.779   5.711   3.380
 5749SOL    HW122994   5.829   5.643   3.426
 5749SOL    HW222995   5.782   5.684   3.289
 5749SOL     MW22996   5.785   5.699   3.375
 5750SOL     OW22997   3.638   4.881   0.788
 5750SOL    HW122998   3.605   4.815   0.850
 5750SOL    HW222999   3.646   4.960   0.840
 5750SOL     MW23000   3.635   4.882   0.802
 5751SOL     OW23001   3.570   3.357   4.508
 5751SOL    HW123002   3.613   3.359   4.594
 5751SOL    HW223003   3.596   3.274   4.471
 5751SOL     MW23004   3.578   3.348   4.514
 5752SOL     OW23005   4.221   3.319   4.991
 5752SOL    HW123006   4.300   3.285   5.035
 5752SOL    HW223007   4.242   3.315   4.899
 5752SOL     MW23008   4.233   3.314   4.985
 5753SOL     OW23009   5.852   5.414   1.462
 5753SOL    HW123010   5.882   5.349   1.397
 5753SOL    HW223011   5.892   5.386   1.543
 5753SOL     MW23012   5.860   5.402   1.463
 5754SOL     OW23013   5.335   0.613   5.453
 5754SOL    HW123014   5.327   0.709   5.449
 5754SOL    HW223015   5.310   0.591   5.542
 5754SOL     MW23016   5.331   0.622   5.463
 5755SOL     OW23017   5.831   2.067   3.282
 5755SOL    HW123018   5.809   2.139   3.223
 5755SOL    HW223019   5.775   2.080   3.357
 5755SOL     MW23020   5.822   2.077   3.284
 5756SOL     OW23021   3.511   0.842   5.332
 5756SOL    HW123022   3.426   0.800   5.314
 5756SOL    HW223023   3.497   0.888   5.414
 5756SOL     MW23024   3.499   0.842   5.340
 5757SOL     OW23025   0.917   2.885   1.372
 5757SOL    HW123026   0.889   2.929   1.291
 5757SOL    HW223027   0.866   2.805   1.374
 5757SOL     MW23028   0.908   2.881   1.362
 5758SOL     OW23029   1.411   3.453   0.798
 5758SOL    HW123030   1.462   3.459   0.879
 5758SOL    HW223031   1.353   3.379   0.812
 5758SOL     MW23032   1.411   3.445   0.809
 5759SOL     OW23033   1.003   3.747   2.490
 5759SOL    HW123034   1.004   3.650   2.494
 5759SOL    HW223035   1.045   3.774   2.570
 5759SOL     MW23036   1.008   3.738   2.500
 5760SOL     OW23037   3.302   3.809   1.262
 5760SOL    HW123038   3.212   3.787   1.288
 5760SOL    HW223039   3.313   3.764   1.179
 5760SOL     MW23040   3.292   3.801   1.255
 5761SOL     OW23041   5.468   1.854   1.554
 5761SOL    HW123042   5.508   1.787   1.498
 5761SOL    HW223043   5.419   1.805   1.619
 5761SOL     MW23044   5.467   1.840   1.555
 5762SOL     OW23045   3.145   4.577   2.505
 5762SOL    HW123046   3.155   4.485   2.477
 5762SOL    HW223047   3.227   4.598   2.547
 5762SOL     MW23048   3.156   4.568   2.507
 5763SOL     OW23049   4.952   0.710   0.657
 5763SOL    HW123050   4.940   0.627   0.610
 5763SOL    HW223051   4.869   0.723   0.702
 5763SOL     MW23052   4.941   0.701   0.656
 5764SOL     OW23053   1.516   5.977   0.873
 5764SOL    HW123054   1.430   6.010   0.846
 5764SOL    HW223055   1.523   5.892   0.832
 5764SOL     MW23056   1.507   5.971   0.865
 5765SOL     OW23057   2.500   4.292   5.119
 5765SOL    HW123058   2.422   4.308   5.173
 5765SOL    HW223059   2.510   4.197   5.121
 5765SOL     MW23060   2.492   4.282   5.126
 5766SOL     OW23061   4.115   4.746   1.376
 5766SOL    HW123062   4.051   4.781   1.313
 5766SOL    HW223063   4.184   4.709   1.322
 5766SOL     MW23064   4.116   4.746   1.362
 5767SOL     OW23065   0.170   2.820   2.403
 5767SOL    HW123066   0.243   2.879   2.426
 5767SOL    HW223067   0.176   2.810   2.309
 5767SOL     MW23068   0.179   2.826   2.395
 5768SOL     OW23069   3.903   4.709   4.023
 5768SOL    HW123070   3.823   4.763   4.018
 5768SOL    HW223071   3.893   4.648   3.951
 5768SOL     MW23072   3.892   4.709   4.014
 5769SOL     OW23073   3.161   5.507   4.656
 5769SOL    HW123074   3.092   5.570   4.683
 5769SOL    HW223075   3.125   5.464   4.580
 5769SOL     MW23076   3.148   5.510   4.650
 5770SOL     OW23077   4.673   5.855   0.852
 5770SOL    HW123078   4.624   5.782   0.892
 5770SOL    HW223079   4.669   5.837   0.759
 5770SOL     MW23080   4.666   5.844   0.846
 5771SOL     OW23081   1.259   6.012   2.293
 5771SOL    HW123082   1.283   6.069   2.219
 5771SOL    HW223083   1.166   6.000   2.284
 5771SOL     MW23084   1.251   6.018   2.283
 5772SOL     OW23085   0.540   4.256   2.545
 5772SOL    HW123086   0.594   4.180   2.522
 5772SOL    HW223087   0.603   4.327   2.552
 5772SOL     MW23088   0.554   4.255   2.543
 5773SOL     OW23089   4.365   1.333   1.949
 5773SOL    HW123090   4.377   1.297   2.038
 5773SOL    HW223091   4.451   1.328   1.910
 5773SOL     MW23092   4.376   1.328   1.955
 5774SOL     OW23093   1.528   0.970   3.454
 5774SOL    HW123094   1.568   1.053   3.426
 5774SOL    HW223095   1.576   0.946   3.532
 5774SOL     MW23096   1.538   0.977   3.460
 5775SOL     OW23097   4.124   5.191   1.115
 5775SOL    HW123098   4.089   5.103   1.096
 5775SOL    HW223099   4.075   5.220   1.190
 5775SOL     MW23100   4.114   5.184   1.121
 5776SOL     OW23101   1.145   1.348   1.428
 5776SOL    HW123102   1.120   1.265   1.386
 5776SOL    HW223103   1.147   1.327   1.521
 5776SOL     MW23104   1.142   1.335   1.434
 5777SOL     OW23105   0.533   5.505   1.027
 5777SOL    HW123106   0.582   5.474   1.104
 5777SOL    HW223107   0.443   5.506   1.055
 5777SOL     MW23108   0.529   5.502   1.040
 5778SOL     OW23109   3.858   4.612   4.465
 5778SOL    HW123110   3.891   4.691   4.420
 5778SOL    HW223111   3.900   4.615   4.550
 5778SOL     MW23112   3.867   4.622   4.469
 5779SOL     OW23113   5.740   2.724   3.189
 5779SOL    HW123114   5.776   2.800   3.143
 5779SOL    HW223115   5.729   2.658   3.121
 5779SOL     MW23116   5.743   2.725   3.175
 5780SOL     OW23117   0.139   4.735   4.965
 5780SOL    HW123118   0.091   4.755   4.884
 5780SOL    HW223119   0.216   4.688   4.936
 5780SOL     MW23120   0.142   4.732   4.952
 5781SOL     OW23121   1.799   4.280   0.229
 5781SOL    HW123122   1.787   4.244   0.141
 5781SOL    HW223123   1.787   4.206   0.287
 5781SOL     MW23124   1.796   4.267   0.225
 5782SOL     OW23125   4.131   3.819   1.762
 5782SOL    HW123126   4.119   3.794   1.670
 5782SOL    HW223127   4.112   3.912   1.764
 5782SOL     MW23128   4.127   3.827   1.751
 5783SOL     OW23129   1.498   1.955   2.551
 5783SOL    HW123130   1.496   1.862   2.576
 5783SOL    HW223131   1.540   1.954   2.465
 5783SOL     MW23132   1.503   1.943   2.544
 5784SOL     OW23133   3.014   5.403   0.990
 5784SOL    HW123134   3.014   5.316   0.949
 5784SOL    HW223135   3.020   5.385   1.083
 5784SOL     MW23136   3.015   5.390   0.996
 5785SOL     OW23137   1.633   6.017   0.323
 5785SOL    HW123138   1.661   5.961   0.249
 5785SOL    HW223139   1.712   6.031   0.373
 5785SOL     MW23140   1.646   6.012   0.320
 5786SOL     OW23141   2.006   3.101   4.633
 5786SOL    HW123142   1.947   3.116   4.558
 5786SOL    HW223143   1.968   3.153   4.703
 5786SOL     MW23144   1.994   3.109   4.632
 5787SOL     OW23145   2.801   5.459   2.561
 5787SOL    HW123146   2.725   5.401   2.558
 5787SOL    HW223147   2.875   5.402   2.543
 5787SOL     MW23148   2.801   5.446   2.559
 5788SOL     OW23149   5.753   0.091   4.753
 5788SOL    HW123150   5.820   0.135   4.806
 5788SOL    HW223151   5.780   0.106   4.664
 5788SOL     MW23152   5.764   0.098   4.749
 5789SOL     OW23153   5.885   0.616   4.804
 5789SOL    HW123154   5.947   0.616   4.730
 5789SOL    HW223155   5.895   0.529   4.842
 5789SOL     MW23156   5.894   0.605   4.800
 5790SOL     OW23157   0.976   0.862   3.023
 5790SOL    HW123158   0.934   0.788   3.068
 5790SOL    HW223159   1.022   0.908   3.092
 5790SOL     MW23160   0.976   0.858   3.037
 5791SOL     OW23161   1.494   3.153   0.541
 5791SOL    HW123162   1.476   3.246   0.557
 5791SOL    HW223163   1.555   3.153   0.468
 5791SOL     MW23164   1.499   3.164   0.535
 5792SOL     OW23165   3.077   2.252   4.515
 5792SOL    HW123166   2.989   2.229   4.483
 5792SOL    HW223167   3.067   2.260   4.609
 5792SOL     MW23168   3.065   2.250   4.522
 5793SOL     OW23169   3.607   2.802   5.062
 5793SOL    HW123170   3.535   2.755   5.018
 5793SOL    HW223171   3.594   2.782   5.154
 5793SOL     MW23172   3.597   2.794   5.067
 5794SOL     OW23173   5.031   2.144   4.936
 5794SOL    HW123174   5.088   2.167   4.862
 5794SOL    HW223175   4.943   2.162   4.903
 5794SOL     MW23176   5.027   2.149   4.923
 5795SOL     OW23177   2.305   0.365   3.021
 5795SOL    HW123178   2.306   0.370   2.925
 5795SOL    HW223179   2.226   0.316   3.041
 5795SOL     MW23180   2.296   0.360   3.012
 5796SOL     OW23181   2.496   4.239   1.090
 5796SOL    HW123182   2.499   4.215   1.183
 5796SOL    HW223183   2.431   4.180   1.053
 5796SOL     MW23184   2.489   4.229   1.097
 5797SOL     OW23185   2.413   2.202   0.634
 5797SOL    HW123186   2.485   2.224   0.693
 5797SOL    HW223187   2.454   2.148   0.567
 5797SOL     MW23188   2.427   2.198   0.633
 5798SOL     OW23189   2.286   2.696   4.963
 5798SOL    HW123190   2.350   2.630   4.936
 5798SOL    HW223191   2.313   2.719   5.051
 5798SOL     MW23192   2.297   2.691   4.970
 5799SOL     OW23193   0.252   5.226   3.433
 5799SOL    HW123194   0.230   5.301   3.377
 5799SOL    HW223195   0.206   5.243   3.515
 5799SOL     MW23196   0.244   5.237   3.436
 5800SOL     OW23197   0.264   5.082   4.667
 5800SOL    HW123198   0.340   5.024   4.662
 5800SOL    HW223199   0.246   5.090   4.760
 5800SOL     MW23200   0.271   5.076   4.678
 5801SOL     OW23201   5.937   4.576   2.427
 5801SOL    HW123202   6.011   4.514   2.434
 5801SOL    HW223203   5.929   4.613   2.514
 5801SOL     MW23204   5.945   4.573   2.438
 5802SOL     OW23205   1.449   0.799   0.929
 5802SOL    HW123206   1.370   0.764   0.885
 5802SOL    HW223207   1.472   0.731   0.991
 5802SOL     MW23208   1.442   0.786   0.931
 5803SOL     OW23209   1.290   3.347   1.768
 5803SOL    HW123210   1.351   3.277   1.741
 5803SOL    HW223211   1.204   3.306   1.760
 5803SOL     MW23212   1.287   3.333   1.764
 5804SOL     OW23213   3.198   5.717   5.672
 5804SOL    HW123214   3.124   5.739   5.614
 5804SOL    HW223215   3.176   5.758   5.754
 5804SOL     MW23216   3.186   5.725   5.675
 5805SOL     OW23217   3.001   1.723   4.000
 5805SOL    HW123218   2.961   1.664   4.065
 5805SOL    HW223219   3.094   1.716   4.016
 5805SOL     MW23220   3.007   1.715   4.010
 5806SOL     OW23221   5.786   2.829   6.068
 5806SOL    HW123222   5.879   2.807   6.064
 5806SOL    HW223223   5.741   2.746   6.065
 5806SOL     MW23224   5.792   2.817   6.068
 5807SOL     OW23225   2.550   3.880   1.482
 5807SOL    HW123226   2.608   3.934   1.537
 5807SOL    HW223227   2.489   3.841   1.544
 5807SOL     MW23228   2.550   3.882   1.496
 5808SOL     OW23229   0.181   3.358   1.181
 5808SOL    HW123230   0.246   3.291   1.203
 5808SOL    HW223231   0.186   3.366   1.087
 5808SOL     MW23232   0.189   3.351   1.172
 5809SOL     OW23233   2.569   3.780   5.691
 5809SOL    HW123234   2.568   3.803   5.598
 5809SOL    HW223235   2.492   3.823   5.727
 5809SOL     MW23236   2.560   3.788   5.684
 5810SOL     OW23237   0.609   3.542   5.954
 5810SOL    HW123238   0.594   3.531   5.859
 5810SOL    HW223239   0.623   3.454   5.985
 5810SOL     MW23240   0.609   3.530   5.946
 5811SOL     OW23241   1.491   2.134   1.645
 5811SOL    HW123242   1.423   2.102   1.705
 5811SOL    HW223243   1.564   2.153   1.702
 5811SOL     MW23244   1.491   2.132   1.660
 5812SOL     OW23245   1.304   0.910   3.818
 5812SOL    HW123246   1.367   0.852   3.863
 5812SOL    HW223247   1.353   0.989   3.801
 5812SOL     MW23248   1.317   0.912   3.821
 5813SOL     OW23249   1.818   4.370   5.341
 5813SOL    HW123250   1.732   4.397   5.375
 5813SOL    HW223251   1.816   4.395   5.250
 5813SOL     MW23252   1.807   4.376   5.335
 5814SOL     OW23253   3.778   3.045   5.155
 5814SOL    HW123254   3.817   2.984   5.218
 5814SOL    HW223255   3.804   3.011   5.070
 5814SOL     MW23256   3.786   3.033   5.152
 5815SOL     OW23257   0.931   2.625   5.255
 5815SOL    HW123258   0.973   2.632   5.341
 5815SOL    HW223259   0.916   2.715   5.228
 5815SOL     MW23260   0.934   2.637   5.263
 5816SOL     OW23261   3.052   4.001   4.943
 5816SOL    HW123262   3.094   3.968   5.023
 5816SOL    HW223263   3.124   4.023   4.886
 5816SOL     MW23264   3.066   4.000   4.946
 5817SOL     OW23265   1.704   1.869   2.595
 5817SOL    HW123266   1.699   1.806   2.523
 5817SOL    HW223267   1.661   1.826   2.667
 5817SOL     MW23268   1.698   1.856   2.595
 5818SOL     OW23269   3.786   3.495   2.346
 5818SOL    HW123270   3.850   3.554   2.387
 5818SOL    HW223271   3.789   3.518   2.254
 5818SOL     MW23272   3.794   3.505   2.340
 5819SOL     OW23273   3.331   0.228   0.840
 5819SOL    HW123274   3.417   0.250   0.878
 5819SOL    HW223275   3.293   0.166   0.901
 5819SOL     MW23276   3.337   0.224   0.852
 5820SOL     OW23277   4.689   5.828   4.318
 5820SOL    HW123278   4.764   5.806   4.262
 5820SOL    HW223279   4.695   5.766   4.390
 5820SOL     MW23280   4.699   5.818   4.319
 5821SOL     OW23281   2.595   3.430   5.284
 5821SOL    HW123282   2.534   3.501   5.261
 5821SOL    HW223283   2.632   3.458   5.366
 5821SOL     MW23284   2.592   3.442   5.291
 5822SOL     OW23285   0.346   1.200   2.851
 5822SOL    HW123286   0.255   1.202   2.881
 5822SOL    HW223287   0.339   1.196   2.756
 5822SOL     MW23288   0.334   1.200   2.843
 5823SOL     OW23289   0.412   5.517   3.465
 5823SOL    HW123290   0.411   5.604   3.422
 5823SOL    HW223291   0.350   5.466   3.414
 5823SOL     MW23292   0.404   5.522   3.454
 5824SOL     OW23293   4.632   1.624   6.006
 5824SOL    HW123294   4.704   1.569   6.038
 5824SOL    HW223295   4.596   1.575   5.933
 5824SOL     MW23296   4.636   1.611   6.001
 5825SOL     OW23297   0.838   3.446   5.665
 5825SOL    HW123298   0.930   3.456   5.692
 5825SOL    HW223299   0.792   3.426   5.745
 5825SOL     MW23300   0.843   3.445   5.678
 5826SOL     OW23301   5.956   5.630   0.498
 5826SOL    HW123302   6.034   5.628   0.442
 5826SOL    HW223303   5.961   5.714   0.542
 5826SOL     MW23304   5.966   5.639   0.497
 5827SOL     OW23305   5.235   2.703   5.898
 5827SOL    HW123306   5.218   2.706   5.992
 5827SOL    HW223307   5.265   2.790   5.876
 5827SOL     MW23308   5.237   2.713   5.907
 5828SOL     OW23309   5.850   1.237   0.968
 5828SOL    HW123310   5.855   1.141   0.967
 5828SOL    HW223311   5.836   1.261   0.877
 5828SOL     MW23312   5.849   1.228   0.957
 5829SOL     OW23313   4.338   3.183   1.141
 5829SOL    HW123314   4.284   3.242   1.194
 5829SOL    HW223315   4.321   3.209   1.052
 5829SOL     MW23316   4.330   3.193   1.137
 5830SOL     OW23317   3.356   4.783   5.589
 5830SOL    HW123318   3.433   4.813   5.540
 5830SOL    HW223319   3.298   4.748   5.523
 5830SOL     MW23320   3.359   4.783   5.575
 5831SOL     OW23321   0.126   4.215   5.072
 5831SOL    HW123322   0.144   4.124   5.097
 5831SOL    HW223323   0.126   4.212   4.977
 5831SOL     MW23324   0.128   4.203   5.063
 5832SOL     OW23325   4.967   4.364   5.514
 5832SOL    HW123326   4.888   4.310   5.532
 5832SOL    HW223327   4.954   4.442   5.567
 5832SOL     MW23328   4.956   4.366   5.523
 5833SOL     OW23329   6.008   3.076   4.083
 5833SOL    HW123330   5.939   3.033   4.033
 5833SOL    HW223331   5.979   3.070   4.173
 5833SOL     MW23332   5.996   3.070   4.088
 5834SOL     OW23333   1.919   5.958   4.847
 5834SOL    HW123334   1.837   5.985   4.804
 5834SOL    HW223335   1.930   6.020   4.918
 5834SOL     MW23336   1.910   5.969   4.850
 5835SOL     OW23337   5.386   4.369   6.088
 5835SOL    HW123338   5.305   4.321   6.106
 5835SOL    HW223339   5.362   4.431   6.020
 5835SOL     MW23340   5.373   4.371   6.082
 5836SOL     OW23341   0.299   5.770   5.897
 5836SOL    HW123342   0.346   5.692   5.867
 5836SOL    HW223343   0.367   5.831   5.921
 5836SOL     MW23344   0.313   5.768   5.896
 5837SOL     OW23345   5.475   3.299   0.231
 5837SOL    HW123346   5.470   3.393   0.253
 5837SOL    HW223347   5.550   3.269   0.280
 5837SOL     MW23348   5.483   3.307   0.240
 5838SOL     OW23349   5.732   0.496   4.115
 5838SOL    HW123350   5.810   0.441   4.125
 5838SOL    HW223351   5.730   0.518   4.023
 5838SOL     MW23352   5.741   0.492   4.106
 5839SOL     OW23353   2.650   3.655   6.046
 5839SOL    HW123354   2.653   3.560   6.062
 5839SOL    HW223355   2.658   3.663   5.952
 5839SOL     MW23356   2.651   3.644   6.037
 5840SOL     OW23357   3.392   4.930   1.534
 5840SOL    HW123358   3.360   4.878   1.609
 5840SOL    HW223359   3.331   4.911   1.465
 5840SOL     MW23360   3.381   4.921   1.535
 5841SOL     OW23361   1.617   3.505   0.691
 5841SOL    HW123362   1.591   3.550   0.610
 5841SOL    HW223363   1.673   3.568   0.735
 5841SOL     MW23364   1.621   3.518   0.687
 5842SOL     OW23365   4.324   5.319   0.626
 5842SOL    HW123366   4.352   5.405   0.594
 5842SOL    HW223367   4.319   5.266   0.547
 5842SOL     MW23368   4.327   5.323   0.613
 5843SOL     OW23369   4.580   3.378   5.369
 5843SOL    HW123370   4.622   3.461   5.345
 5843SOL    HW223371   4.573   3.381   5.463
 5843SOL     MW23372   4.584   3.388   5.377
 5844SOL     OW23373   3.164   1.647   3.312
 5844SOL    HW123374   3.080   1.662   3.357
 5844SOL    HW223375   3.173   1.553   3.311
 5844SOL     MW23376   3.155   1.638   3.317
 5845SOL     OW23377   3.294   0.649   1.289
 5845SOL    HW123378   3.312   0.573   1.234
 5845SOL    HW223379   3.234   0.617   1.355
 5845SOL     MW23380   3.289   0.636   1.290
 5846SOL     OW23381   6.079   2.452   6.062
 5846SOL    HW123382   5.997   2.453   6.112
 5846SOL    HW223383   6.052   2.465   5.972
 5846SOL     MW23384   6.066   2.454   6.058
 5847SOL     OW23385   5.334   2.834   3.454
 5847SOL    HW123386   5.244   2.837   3.490
 5847SOL    HW223387   5.321   2.834   3.360
 5847SOL     MW23388   5.321   2.835   3.448
 5848SOL     OW23389   0.646   5.594   2.461
 5848SOL    HW123390   0.563   5.638   2.485
 5848SOL    HW223391   0.653   5.608   2.367
 5848SOL     MW23392   0.637   5.601   2.453
 5849SOL     OW23393   5.305   6.027   2.137
 5849SOL    HW123394   5.323   5.941   2.098
 5849SOL    HW223395   5.347   6.088   2.077
 5849SOL     MW23396   5.312   6.024   2.125
 5850SOL     OW23397   5.125   4.596   1.890
 5850SOL    HW123398   5.135   4.584   1.985
 5850SOL    HW223399   5.152   4.686   1.875
 5850SOL     MW23400   5.129   4.605   1.900
 5851SOL     OW23401   0.528   4.743   3.904
 5851SOL    HW123402   0.471   4.807   3.860
 5851SOL    HW223403   0.523   4.767   3.996
 5851SOL     MW23404   0.520   4.754   3.910
 5852SOL     OW23405   0.459   5.290   4.374
 5852SOL    HW123406   0.474   5.227   4.445
 5852SOL    HW223407   0.375   5.329   4.395
 5852SOL     MW23408   0.451   5.287   4.386
 5853SOL     OW23409   4.223   5.954   3.360
 5853SOL    HW123410   4.219   5.933   3.266
 5853SOL    HW223411   4.141   5.998   3.378
 5853SOL     MW23412   4.213   5.957   3.350
 5854SOL     OW23413   2.711   1.357   5.162
 5854SOL    HW123414   2.616   1.357   5.150
 5854SOL    HW223415   2.726   1.420   5.232
 5854SOL     MW23416   2.701   1.365   5.169
 5855SOL     OW23417   4.645   4.003   4.535
 5855SOL    HW123418   4.697   4.059   4.593
 5855SOL    HW223419   4.559   4.001   4.575
 5855SOL     MW23420   4.641   4.010   4.547
 5856SOL     OW23421   4.092   5.492   5.265
 5856SOL    HW123422   4.177   5.449   5.280
 5856SOL    HW223423   4.028   5.424   5.282
 5856SOL     MW23424   4.095   5.479   5.269
 5857SOL     OW23425   0.686   0.544   4.935
 5857SOL    HW123426   0.612   0.572   4.989
 5857SOL    HW223427   0.763   0.572   4.984
 5857SOL     MW23428   0.686   0.551   4.947
 5858SOL     OW23429   4.844   5.292   4.924
 5858SOL    HW123430   4.834   5.352   4.849
 5858SOL    HW223431   4.863   5.208   4.885
 5858SOL     MW23432   4.845   5.290   4.910
 5859SOL     OW23433   3.707   1.282   5.777
 5859SOL    HW123434   3.794   1.258   5.744
 5859SOL    HW223435   3.704   1.245   5.864
 5859SOL     MW23436   3.717   1.275   5.783
 5860SOL     OW23437   0.584   5.825   1.736
 5860SOL    HW123438   0.651   5.893   1.719
 5860SOL    HW223439   0.502   5.872   1.735
 5860SOL     MW23440   0.583   5.839   1.734
 5861SOL     OW23441   1.090   0.415   2.926
 5861SOL    HW123442   1.178   0.452   2.938
 5861SOL    HW223443   1.087   0.391   2.834
 5861SOL     MW23444   1.100   0.417   2.916
 5862SOL     OW23445   5.682   1.246   2.543
 5862SOL    HW123446   5.591   1.228   2.568
 5862SOL    HW223447   5.682   1.239   2.449
 5862SOL     MW23448   5.671   1.243   2.535
 5863SOL     OW23449   4.069   5.126   2.045
 5863SOL    HW123450   4.097   5.206   2.091
 5863SOL    HW223451   4.081   5.147   1.954
 5863SOL     MW23452   4.074   5.138   2.040
 5864SOL     OW23453   2.672   4.072   2.559
 5864SOL    HW123454   2.606   4.135   2.530
 5864SOL    HW223455   2.679   4.088   2.653
 5864SOL     MW23456   2.665   4.082   2.567
 5865SOL     OW23457   4.302   2.366   0.671
 5865SOL    HW123458   4.340   2.410   0.594
 5865SOL    HW223459   4.376   2.357   0.731
 5865SOL     MW23460   4.316   2.371   0.669
 5866SOL     OW23461   1.958   2.016   0.290
 5866SOL    HW123462   1.868   1.983   0.302
 5866SOL    HW223463   1.983   2.045   0.376
 5866SOL     MW23464   1.950   2.015   0.302
 5867SOL     OW23465   2.269   2.145   0.441
 5867SOL    HW123466   2.311   2.190   0.367
 5867SOL    HW223467   2.265   2.210   0.509
 5867SOL     MW23468   2.273   2.158   0.440
 5868SOL     OW23469   0.308   4.971   5.592
 5868SOL    HW123470   0.391   4.943   5.553
 5868SOL    HW223471   0.298   4.914   5.667
 5868SOL     MW23472   0.317   4.961   5.596
 5869SOL     OW23473   3.697   2.999   2.521
 5869SOL    HW123474   3.630   2.949   2.569
 5869SOL    HW223475   3.701   2.958   2.436
 5869SOL     MW23476   3.689   2.988   2.517
 5870SOL     OW23477   5.583   3.264   4.515
 5870SOL    HW123478   5.593   3.355   4.547
 5870SOL    HW223479   5.604   3.270   4.422
 5870SOL     MW23480   5.587   3.276   4.508
 5871SOL     OW23481   1.101   1.869   3.674
 5871SOL    HW123482   1.075   1.864   3.766
 5871SOL    HW223483   1.063   1.791   3.635
 5871SOL     MW23484   1.093   1.859   3.680
 5872SOL     OW23485   0.968   0.597   2.079
 5872SOL    HW123486   1.011   0.580   2.163
 5872SOL    HW223487   1.012   0.674   2.045
 5872SOL     MW23488   0.978   0.604   2.085
 5873SOL     OW23489   2.924   2.385   5.844
 5873SOL    HW123490   2.829   2.371   5.851
 5873SOL    HW223491   2.941   2.388   5.751
 5873SOL     MW23492   2.915   2.383   5.834
 5874SOL     OW23493   1.553   2.073   3.288
 5874SOL    HW123494   1.546   2.055   3.194
 5874SOL    HW223495   1.475   2.125   3.308
 5874SOL     MW23496   1.543   2.077   3.279
 5875SOL     OW23497   2.149   4.522   4.442
 5875SOL    HW123498   2.161   4.452   4.377
 5875SOL    HW223499   2.191   4.598   4.404
 5875SOL     MW23500   2.155   4.523   4.430
 5876SOL     OW23501   0.938   5.197   3.173
 5876SOL    HW123502   1.023   5.242   3.172
 5876SOL    HW223503   0.883   5.252   3.118
 5876SOL     MW23504   0.941   5.209   3.166
 5877SOL     OW23505   5.883   5.200   4.894
 5877SOL    HW123506   5.892   5.293   4.870
 5877SOL    HW223507   5.812   5.199   4.957
 5877SOL     MW23508   5.876   5.212   4.898
 5878SOL     OW23509   4.395   1.853   4.846
 5878SOL    HW123510   4.317   1.840   4.791
 5878SOL    HW223511   4.377   1.803   4.925
 5878SOL     MW23512   4.383   1.845   4.848
 5879SOL     OW23513   4.043   3.836   0.443
 5879SOL    HW123514   4.003   3.869   0.524
 5879SOL    HW223515   4.090   3.910   0.408
 5879SOL     MW23516   4.044   3.848   0.449
 5880SOL     OW23517   0.599   0.835   2.167
 5880SOL    HW123518   0.582   0.929   2.183
 5880SOL    HW223519   0.513   0.797   2.156
 5880SOL     MW23520   0.587   0.842   2.167
 5881SOL     OW23521   3.999   3.955   3.605
 5881SOL    HW123522   3.992   3.861   3.587
 5881SOL    HW223523   4.033   3.959   3.694
 5881SOL     MW23524   4.002   3.944   3.613
 5882SOL     OW23525   5.148   5.236   1.419
 5882SOL    HW123526   5.077   5.257   1.481
 5882SOL    HW223527   5.107   5.242   1.334
 5882SOL     MW23528   5.134   5.239   1.417
 5883SOL     OW23529   3.637   4.078   6.021
 5883SOL    HW123530   3.628   3.988   5.989
 5883SOL    HW223531   3.576   4.128   5.967
 5883SOL     MW23532   3.629   4.073   6.010
 5884SOL     OW23533   0.131   5.510   4.457
 5884SOL    HW123534   0.084   5.593   4.469
 5884SOL    HW223535   0.169   5.493   4.543
 5884SOL     MW23536   0.129   5.518   4.469
 5885SOL     OW23537   0.266   0.213   5.334
 5885SOL    HW123538   0.188   0.177   5.377
 5885SOL    HW223539   0.242   0.219   5.242
 5885SOL     MW23540   0.254   0.210   5.328
 5886SOL     OW23541   0.641   2.465   4.997
 5886SOL    HW123542   0.634   2.385   4.944
 5886SOL    HW223543   0.614   2.438   5.084
 5886SOL     MW23544   0.637   2.452   5.001
 5887SOL     OW23545   1.237   0.810   5.715
 5887SOL    HW123546   1.172   0.744   5.690
 5887SOL    HW223547   1.235   0.811   5.810
 5887SOL     MW23548   1.229   0.802   5.723
 5888SOL     OW23549   4.498   1.269   3.384
 5888SOL    HW123550   4.536   1.302   3.302
 5888SOL    HW223551   4.563   1.208   3.416
 5888SOL     MW23552   4.510   1.266   3.378
 5889SOL     OW23553   1.403   0.563   5.352
 5889SOL    HW123554   1.327   0.615   5.324
 5889SOL    HW223555   1.398   0.564   5.447
 5889SOL     MW23556   1.393   0.569   5.360
 5890SOL     OW23557   5.093   4.081   4.328
 5890SOL    HW123558   5.037   4.159   4.319
 5890SOL    HW223559   5.174   4.114   4.365
 5890SOL     MW23560   5.096   4.094   4.331
 5891SOL     OW23561   3.026   5.384   5.564
 5891SOL    HW123562   2.980   5.360   5.645
 5891SOL    HW223563   2.973   5.453   5.526
 5891SOL     MW23564   3.014   5.389   5.569
 5892SOL     OW23565   4.750   3.351   4.574
 5892SOL    HW123566   4.761   3.439   4.537
 5892SOL    HW223567   4.829   3.305   4.550
 5892SOL     MW23568   4.760   3.356   4.567
 5893SOL     OW23569   4.977   3.074   1.022
 5893SOL    HW123570   4.926   3.147   0.987
 5893SOL    HW223571   4.952   3.069   1.113
 5893SOL     MW23572   4.968   3.082   1.028
 5894SOL     OW23573   2.865   3.102   0.994
 5894SOL    HW123574   2.794   3.039   0.977
 5894SOL    HW223575   2.854   3.124   1.086
 5894SOL     MW23576   2.855   3.097   1.003
 5895SOL     OW23577   2.157   5.209   3.212
 5895SOL    HW123578   2.229   5.163   3.256
 5895SOL    HW223579   2.163   5.181   3.122
 5895SOL     MW23580   2.167   5.200   3.207
 5896SOL     OW23581   5.502   2.845   3.510
 5896SOL    HW123582   5.452   2.907   3.565
 5896SOL    HW223583   5.504   2.886   3.424
 5896SOL     MW23584   5.496   2.858   3.507
 5897SOL     OW23585   3.633   2.991   4.565
 5897SOL    HW123586   3.704   3.055   4.558
 5897SOL    HW223587   3.581   3.005   4.487
 5897SOL     MW23588   3.635   3.000   4.555
 5898SOL     OW23589   2.383   1.850   2.871
 5898SOL    HW123590   2.362   1.773   2.818
 5898SOL    HW223591   2.384   1.818   2.960
 5898SOL     MW23592   2.380   1.837   2.875
 5899SOL     OW23593   4.471   5.696   0.976
 5899SOL    HW123594   4.503   5.767   1.034
 5899SOL    HW223595   4.494   5.726   0.888
 5899SOL     MW23596   4.478   5.708   0.972
 5900SOL     OW23597   1.193   2.324   1.978
 5900SOL    HW123598   1.273   2.295   1.933
 5900SOL    HW223599   1.124   2.274   1.937
 5900SOL     MW23600   1.194   2.314   1.967
 5901SOL     OW23601   5.656   3.261   3.524
 5901SOL    HW123602   5.700   3.234   3.443
 5901SOL    HW223603   5.691   3.203   3.590
 5901SOL     MW23604   5.665   3.251   3.522
 5902SOL     OW23605   4.075   0.621   5.429
 5902SOL    HW123606   4.055   0.533   5.462
 5902SOL    HW223607   4.044   0.620   5.340
 5902SOL     MW23608   4.069   0.610   5.423
 5903SOL     OW23609   3.314   0.220   3.812
 5903SOL    HW123610   3.405   0.217   3.781
 5903SOL    HW223611   3.319   0.193   3.903
 5903SOL     MW23612   3.325   0.217   3.819
 5904SOL     OW23613   5.463   2.296   4.901
 5904SOL    HW123614   5.405   2.229   4.865
 5904SOL    HW223615   5.493   2.344   4.825
 5904SOL     MW23616   5.459   2.294   4.888
 5905SOL     OW23617   0.359   3.916   0.395
 5905SOL    HW123618   0.419   3.990   0.408
 5905SOL    HW223619   0.414   3.846   0.363
 5905SOL     MW23620   0.372   3.917   0.393
 5906SOL     OW23621   2.108   5.656   5.840
 5906SOL    HW123622   2.095   5.743   5.878
 5906SOL    HW223623   2.119   5.671   5.747
 5906SOL     MW23624   2.108   5.668   5.834
 5907SOL     OW23625   5.048   0.955   1.762
 5907SOL    HW123626   5.101   0.949   1.842
 5907SOL    HW223627   5.060   1.044   1.732
 5907SOL     MW23628   5.056   0.965   1.768
 5908SOL     OW23629   4.053   0.535   1.583
 5908SOL    HW123630   4.006   0.458   1.618
 5908SOL    HW223631   4.056   0.520   1.489
 5908SOL     MW23632   4.048   0.524   1.576
 5909SOL     OW23633   1.205   0.211   2.027
 5909SOL    HW123634   1.195   0.170   1.941
 5909SOL    HW223635   1.273   0.276   2.015
 5909SOL     MW23636   1.212   0.214   2.015
 5910SOL     OW23637   5.484   1.392   6.060
 5910SOL    HW123638   5.467   1.447   5.983
 5910SOL    HW223639   5.398   1.370   6.093
 5910SOL     MW23640   5.472   1.396   6.055
 5911SOL     OW23641   2.384   5.983   3.773
 5911SOL    HW123642   2.329   5.953   3.846
 5911SOL    HW223643   2.387   5.909   3.714
 5911SOL     MW23644   2.378   5.971   3.775
 5912SOL     OW23645   3.157   4.699   0.726
 5912SOL    HW123646   3.140   4.662   0.813
 5912SOL    HW223647   3.075   4.690   0.680
 5912SOL     MW23648   3.145   4.694   0.731
 5913SOL     OW23649   2.682   5.842   3.451
 5913SOL    HW123650   2.717   5.810   3.535
 5913SOL    HW223651   2.589   5.851   3.466
 5913SOL     MW23652   2.675   5.839   3.463
 5914SOL     OW23653   2.141   3.718   1.042
 5914SOL    HW123654   2.124   3.807   1.076
 5914SOL    HW223655   2.175   3.732   0.955
 5914SOL     MW23656   2.143   3.731   1.036
 5915SOL     OW23657   0.908   0.185   5.178
 5915SOL    HW123658   0.856   0.239   5.238
 5915SOL    HW223659   0.988   0.234   5.165
 5915SOL     MW23660   0.911   0.197   5.184
 5916SOL     OW23661   6.010   4.084   5.607
 5916SOL    HW123662   5.942   4.139   5.647
 5916SOL    HW223663   5.983   4.076   5.516
 5916SOL     MW23664   5.998   4.090   5.601
 5917SOL     OW23665   1.832   4.752   4.968
 5917SOL    HW123666   1.789   4.795   5.043
 5917SOL    HW223667   1.763   4.743   4.904
 5917SOL     MW23668   1.819   4.756   4.969
 5918SOL     OW23669   1.355   0.207   4.927
 5918SOL    HW123670   1.330   0.284   4.979
 5918SOL    HW223671   1.384   0.243   4.844
 5918SOL     MW23672   1.356   0.221   4.923
 5919SOL     OW23673   2.970   2.344   1.363
 5919SOL    HW123674   2.910   2.280   1.324
 5919SOL    HW223675   2.963   2.328   1.457
 5919SOL     MW23676   2.962   2.334   1.370
 5920SOL     OW23677   0.809   0.671   1.874
 5920SOL    HW123678   0.841   0.753   1.912
 5920SOL    HW223679   0.875   0.606   1.898
 5920SOL     MW23680   0.821   0.673   1.882
 5921SOL     OW23681   4.057   4.401   4.075
 5921SOL    HW123682   4.033   4.317   4.116
 5921SOL    HW223683   4.050   4.385   3.982
 5921SOL     MW23684   4.053   4.389   4.069
 5922SOL     OW23685   4.979   3.919   0.429
 5922SOL    HW123686   5.027   3.963   0.358
 5922SOL    HW223687   4.956   3.989   0.488
 5922SOL     MW23688   4.982   3.933   0.427
 5923SOL     OW23689   5.167   5.858   0.199
 5923SOL    HW123690   5.161   5.854   0.103
 5923SOL    HW223691   5.088   5.815   0.229
 5923SOL     MW23692   5.157   5.853   0.191
 5924SOL     OW23693   0.195   1.504   3.362
 5924SOL    HW123694   0.277   1.456   3.379
 5924SOL    HW223695   0.222   1.580   3.312
 5924SOL     MW23696   0.208   1.507   3.358
 5925SOL     OW23697   3.493   5.291   1.385
 5925SOL    HW123698   3.489   5.266   1.292
 5925SOL    HW223699   3.416   5.345   1.398
 5925SOL     MW23700   3.484   5.294   1.375
 5926SOL     OW23701   4.108   0.792   0.476
 5926SOL    HW123702   4.126   0.737   0.399
 5926SOL    HW223703   4.027   0.756   0.511
 5926SOL     MW23704   4.100   0.781   0.470
 5927SOL     OW23705   5.796   1.930   1.864
 5927SOL    HW123706   5.767   2.017   1.832
 5927SOL    HW223707   5.748   1.918   1.945
 5927SOL     MW23708   5.786   1.939   1.869
 5928SOL     OW23709   5.646   5.893   3.720
 5928SOL    HW123710   5.578   5.948   3.760
 5928SOL    HW223711   5.632   5.902   3.627
 5928SOL     MW23712   5.636   5.901   3.714
 5929SOL     OW23713   1.354   3.332   2.660
 5929SOL    HW123714   1.286   3.385   2.616
 5929SOL    HW223715   1.324   3.325   2.749
 5929SOL     MW23716   1.342   3.337   2.665
 5930SOL     OW23717   1.241   5.386   1.924
 5930SOL    HW123718   1.288   5.462   1.960
 5930SOL    HW223719   1.247   5.398   1.830
 5930SOL     MW23720   1.248   5.397   1.917
 5931SOL     OW23721   4.999   5.636   0.626
 5931SOL    HW123722   4.978   5.573   0.696
 5931SOL    HW223723   4.999   5.583   0.547
 5931SOL     MW23724   4.996   5.622   0.625
 5932SOL     OW23725   1.524   5.155   3.551
 5932SOL    HW123726   1.435   5.179   3.524
 5932SOL    HW223727   1.542   5.212   3.625
 5932SOL     MW23728   1.515   5.164   3.557
 5933SOL     OW23729   3.067   3.014   1.943
 5933SOL    HW123730   3.020   2.942   1.987
 5933SOL    HW223731   3.051   2.999   1.850
 5933SOL     MW23732   3.060   3.003   1.937
 5934SOL     OW23733   5.780   5.440   1.718
 5934SOL    HW123734   5.708   5.462   1.778
 5934SOL    HW223735   5.742   5.452   1.632
 5934SOL     MW23736   5.767   5.444   1.715
 5935SOL     OW23737   5.254   4.733   5.527
 5935SOL    HW123738   5.280   4.769   5.613
 5935SOL    HW223739   5.287   4.796   5.464
 5935SOL     MW23740   5.261   4.745   5.530
 5936SOL     OW23741   0.337   0.409   3.384
 5936SOL    HW123742   0.260   0.383   3.435
 5936SOL    HW223743   0.314   0.494   3.348
 5936SOL     MW23744   0.325   0.416   3.386
 5937SOL     OW23745   4.505   5.482   5.986
 5937SOL    HW123746   4.508   5.522   6.073
 5937SOL    HW223747   4.566   5.409   5.991
 5937SOL     MW23748   4.513   5.478   5.997
 5938SOL     OW23749   0.947   2.578   1.859
 5938SOL    HW123750   0.958   2.528   1.940
 5938SOL    HW223751   0.893   2.651   1.884
 5938SOL     MW23752   0.942   2.580   1.872
 5939SOL     OW23753   0.968   0.778   3.548
 5939SOL    HW123754   0.879   0.746   3.535
 5939SOL    HW223755   0.965   0.821   3.633
 5939SOL     MW23756   0.957   0.779   3.557
 5940SOL     OW23757   0.243   5.635   0.155
 5940SOL    HW123758   0.219   5.717   0.199
 5940SOL    HW223759   0.335   5.646   0.135
 5940SOL     MW23760   0.251   5.647   0.158
 5941SOL     OW23761   5.143   5.274   1.673
 5941SOL    HW123762   5.144   5.364   1.706
 5941SOL    HW223763   5.203   5.275   1.599
 5941SOL     MW23764   5.150   5.285   1.669
 5942SOL     OW23765   2.428   3.556   5.108
 5942SOL    HW123766   2.507   3.607   5.086
 5942SOL    HW223767   2.422   3.562   5.203
 5942SOL     MW23768   2.437   3.563   5.117
 5943SOL     OW23769   3.044   5.767   0.680
 5943SOL    HW123770   2.948   5.779   0.672
 5943SOL    HW223771   3.080   5.826   0.616
 5943SOL     MW23772   3.036   5.775   0.672
 5944SOL     OW23773   5.594   1.192   3.832
 5944SOL    HW123774   5.518   1.248   3.847
 5944SOL    HW223775   5.644   1.238   3.766
 5944SOL     MW23776   5.591   1.204   3.826
 5945SOL     OW23777   5.683   3.646   0.061
 5945SOL    HW123778   5.740   3.568   0.068
 5945SOL    HW223779   5.626   3.639   0.136
 5945SOL     MW23780   5.683   3.635   0.071
 5946SOL     OW23781   5.646   0.201   1.650
 5946SOL    HW123782   5.703   0.273   1.621
 5946SOL    HW223783   5.559   0.240   1.653
 5946SOL     MW23784   5.643   0.215   1.647
 5947SOL     OW23785   2.710   0.207   2.059
 5947SOL    HW123786   2.744   0.279   2.005
 5947SOL    HW223787   2.788   0.171   2.100
 5947SOL     MW23788   2.724   0.211   2.057
 5948SOL     OW23789   3.011   2.444   2.080
 5948SOL    HW123790   3.025   2.362   2.128
 5948SOL    HW223791   2.991   2.507   2.148
 5948SOL     MW23792   3.010   2.442   2.094
 5949SOL     OW23793   2.497   1.580   3.342
 5949SOL    HW123794   2.470   1.531   3.264
 5949SOL    HW223795   2.585   1.547   3.360
 5949SOL     MW23796   2.504   1.570   3.334
 5950SOL     OW23797   5.552   5.189   1.245
 5950SOL    HW123798   5.541   5.125   1.316
 5950SOL    HW223799   5.551   5.273   1.289
 5950SOL     MW23800   5.550   5.191   1.259
 5951SOL     OW23801   2.182   2.725   0.877
 5951SOL    HW123802   2.098   2.721   0.925
 5951SOL    HW223803   2.247   2.711   0.944
 5951SOL     MW23804   2.179   2.723   0.891
 5952SOL     OW23805   4.595   0.362   0.992
 5952SOL    HW123806   4.624   0.284   1.039
 5952SOL    HW223807   4.509   0.339   0.959
 5952SOL     MW23808   4.589   0.350   0.994
 5953SOL     OW23809   0.401   2.612   1.552
 5953SOL    HW123810   0.333   2.654   1.605
 5953SOL    HW223811   0.353   2.567   1.483
 5953SOL     MW23812   0.387   2.612   1.550
 5954SOL     OW23813   1.360   1.591   5.182
 5954SOL    HW123814   1.445   1.552   5.204
 5954SOL    HW223815   1.344   1.564   5.093
 5954SOL     MW23816   1.369   1.583   5.174
 5955SOL     OW23817   1.942   5.456   1.626
 5955SOL    HW123818   1.871   5.500   1.578
 5955SOL    HW223819   2.007   5.523   1.639
 5955SOL     MW23820   1.941   5.469   1.621
 5956SOL     OW23821   3.952   6.078   5.651
 5956SOL    HW123822   3.978   5.985   5.645
 5956SOL    HW223823   3.974   6.114   5.567
 5956SOL     MW23824   3.958   6.071   5.641
 5957SOL     OW23825   3.386   4.348   4.926
 5957SOL    HW123826   3.359   4.433   4.890
 5957SOL    HW223827   3.359   4.351   5.017
 5957SOL     MW23828   3.380   4.359   4.932
 5958SOL     OW23829   4.607   2.438   5.883
 5958SOL    HW123830   4.639   2.529   5.886
 5958SOL    HW223831   4.600   2.414   5.975
 5958SOL     MW23832   4.610   2.447   5.894
 5959SOL     OW23833   0.072   3.030   4.951
 5959SOL    HW123834   0.142   3.063   4.892
 5959SOL    HW223835   0.118   2.975   5.013
 5959SOL     MW23836   0.086   3.028   4.951
 5960SOL     OW23837   2.579   2.327   4.883
 5960SOL    HW123838   2.571   2.419   4.859
 5960SOL    HW223839   2.556   2.325   4.975
 5960SOL     MW23840   2.575   2.338   4.891
 5961SOL     OW23841   4.864   4.934   1.958
 5961SOL    HW123842   4.865   5.020   1.999
 5961SOL    HW223843   4.914   4.879   2.017
 5961SOL     MW23844   4.870   4.938   1.970
 5962SOL     OW23845   1.133   3.319   0.937
 5962SOL    HW123846   1.050   3.294   0.979
 5962SOL    HW223847   1.200   3.290   0.998
 5962SOL     MW23848   1.131   3.312   0.949
 5963SOL     OW23849   5.432   2.517   3.906
 5963SOL    HW123850   5.393   2.491   3.822
 5963SOL    HW223851   5.369   2.577   3.944
 5963SOL     MW23852   5.420   2.521   3.900
 5964SOL     OW23853   1.361   3.012   5.821
 5964SOL    HW123854   1.400   3.083   5.770
 5964SOL    HW223855   1.379   3.036   5.911
 5964SOL     MW23856   1.368   3.024   5.826
 5965SOL     OW23857   3.390   2.804   4.796
 5965SOL    HW123858   3.330   2.816   4.721
 5965SOL    HW223859   3.433   2.721   4.777
 5965SOL     MW23860   3.388   2.795   4.784
 5966SOL     OW23861   2.688   3.368   0.557
 5966SOL    HW123862   2.701   3.369   0.461
 5966SOL    HW223863   2.653   3.282   0.575
 5966SOL     MW23864   2.686   3.358   0.547
 5967SOL     OW23865   3.983   2.819   4.509
 5967SOL    HW123866   4.015   2.781   4.427
 5967SOL    HW223867   3.966   2.744   4.564
 5967SOL     MW23868   3.985   2.805   4.505
 5968SOL     OW23869   2.766   1.139   3.666
 5968SOL    HW123870   2.721   1.221   3.644
 5968SOL    HW223871   2.769   1.139   3.761
 5968SOL     MW23872   2.761   1.149   3.675
 5969SOL     OW23873   3.868   1.302   4.556
 5969SOL    HW123874   3.867   1.207   4.541
 5969SOL    HW223875   3.909   1.311   4.641
 5969SOL     MW23876   3.873   1.291   4.564
 5970SOL     OW23877   3.770   4.348   2.981
 5970SOL    HW123878   3.783   4.388   2.895
 5970SOL    HW223879   3.683   4.311   2.977
 5970SOL     MW23880   3.761   4.348   2.970
 5971SOL     OW23881   1.425   1.120   3.132
 5971SOL    HW123882   1.391   1.060   3.065
 5971SOL    HW223883   1.496   1.072   3.173
 5971SOL     MW23884   1.429   1.107   3.128
 5972SOL     OW23885   0.955   4.809   4.068
 5972SOL    HW123886   0.917   4.805   3.980
 5972SOL    HW223887   0.913   4.738   4.115
 5972SOL     MW23888   0.946   4.800   4.063
 5973SOL     OW23889   1.180   0.707   3.939
 5973SOL    HW123890   1.194   0.793   3.899
 5973SOL    HW223891   1.258   0.692   3.991
 5973SOL     MW23892   1.191   0.715   3.940
 5974SOL     OW23893   4.060   4.905   1.804
 5974SOL    HW123894   4.082   4.993   1.772
 5974SOL    HW223895   4.081   4.908   1.897
 5974SOL     MW23896   4.065   4.917   1.811
 5975SOL     OW23897   4.642   3.719   1.205
 5975SOL    HW123898   4.623   3.759   1.119
 5975SOL    HW223899   4.678   3.790   1.256
 5975SOL     MW23900   4.644   3.732   1.200
 5976SOL     OW23901   4.063   5.251   5.125
 5976SOL    HW123902   4.148   5.296   5.130
 5976SOL    HW223903   4.048   5.241   5.031
 5976SOL     MW23904   4.072   5.255   5.114
 5977SOL     OW23905   2.466   2.798   3.696
 5977SOL    HW123906   2.437   2.886   3.723
 5977SOL    HW223907   2.511   2.814   3.614
 5977SOL     MW23908   2.468   2.811   3.689
 5978SOL     OW23909   3.546   2.438   5.947
 5978SOL    HW123910   3.547   2.524   5.904
 5978SOL    HW223911   3.597   2.450   6.026
 5978SOL     MW23912   3.552   2.450   5.951
 5979SOL     OW23913   3.180   2.587   0.032
 5979SOL    HW123914   3.177   2.636   0.115
 5979SOL    HW223915   3.231   2.642  -0.026
 5979SOL     MW23916   3.186   2.599   0.036
 5980SOL     OW23917   6.056   5.996   1.026
 5980SOL    HW123918   6.054   5.943   1.106
 5980SOL    HW223919   6.115   6.067   1.046
 5980SOL     MW23920   6.063   5.998   1.038
 5981SOL     OW23921   2.738   3.481   1.958
 5981SOL    HW123922   2.697   3.452   2.040
 5981SOL    HW223923   2.716   3.413   1.895
 5981SOL     MW23924   2.730   3.470   1.960
 5982SOL     OW23925   0.346   1.781   0.044
 5982SOL    HW123926   0.439   1.759   0.030
 5982SOL    HW223927   0.338   1.789   0.138
 5982SOL     MW23928   0.357   1.779   0.053
 5983SOL     OW23929   6.007   5.937   4.699
 5983SOL    HW123930   6.006   5.968   4.608
 5983SOL    HW223931   6.023   5.843   4.692
 5983SOL     MW23932   6.009   5.929   4.687
 5984SOL     OW23933   2.518   0.655   3.931
 5984SOL    HW123934   2.445   0.713   3.953
 5984SOL    HW223935   2.566   0.702   3.864
 5984SOL     MW23936   2.515   0.667   3.926
 5985SOL     OW23937   3.449   1.173   4.047
 5985SOL    HW123938   3.505   1.243   4.081
 5985SOL    HW223939   3.452   1.184   3.953
 5985SOL     MW23940   3.456   1.183   4.040
 5986SOL     OW23941   0.635   3.906   1.855
 5986SOL    HW123942   0.586   3.931   1.934
 5986SOL    HW223943   0.678   3.825   1.879
 5986SOL     MW23944   0.634   3.899   1.867
 5987SOL     OW23945   2.422   2.026   3.845
 5987SOL    HW123946   2.478   1.996   3.773
 5987SOL    HW223947   2.338   1.985   3.827
 5987SOL     MW23948   2.419   2.017   3.834
 5988SOL     OW23949   3.004   1.126   5.168
 5988SOL    HW123950   3.033   1.075   5.245
 5988SOL    HW223951   2.943   1.068   5.123
 5988SOL     MW23952   3.000   1.113   5.172
 5989SOL     OW23953   5.211   5.823   4.560
 5989SOL    HW123954   5.139   5.877   4.524
 5989SOL    HW223955   5.207   5.838   4.653
 5989SOL     MW23956   5.201   5.831   4.566
 5990SOL     OW23957   1.598   1.420   1.976
 5990SOL    HW123958   1.512   1.378   1.983
 5990SOL    HW223959   1.624   1.404   1.886
 5990SOL     MW23960   1.591   1.413   1.966
 5991SOL     OW23961   0.925   1.524   2.854
 5991SOL    HW123962   0.914   1.590   2.923
 5991SOL    HW223963   0.904   1.442   2.898
 5991SOL     MW23964   0.921   1.522   2.868
 5992SOL     OW23965   1.599   0.747   5.685
 5992SOL    HW123966   1.642   0.673   5.728
 5992SOL    HW223967   1.549   0.789   5.754
 5992SOL     MW23968   1.598   0.743   5.699
 5993SOL     OW23969   5.006   2.650   4.150
 5993SOL    HW123970   5.068   2.718   4.175
 5993SOL    HW223971   5.057   2.590   4.096
 5993SOL     MW23972   5.020   2.651   4.146
 5994SOL     OW23973   2.938   0.960   1.002
 5994SOL    HW123974   2.895   0.926   1.081
 5994SOL    HW223975   2.935   1.054   1.013
 5994SOL     MW23976   2.932   0.967   1.013
 5995SOL     OW23977   4.596   4.097   2.991
 5995SOL    HW123978   4.617   4.017   3.042
 5995SOL    HW223979   4.516   4.076   2.945
 5995SOL     MW23980   4.589   4.085   2.992
 5996SOL     OW23981   0.406   4.848   2.850
 5996SOL    HW123982   0.472   4.865   2.783
 5996SOL    HW223983   0.329   4.894   2.819
 5996SOL     MW23984   0.405   4.855   2.838
 5997SOL     OW23985   1.201   5.129   4.062
 5997SOL    HW123986   1.130   5.065   4.053
 5997SOL    HW223987   1.276   5.086   4.023
 5997SOL     MW23988   1.202   5.116   4.056
 5998SOL     OW23989   5.943   2.880   0.598
 5998SOL    HW123990   6.010   2.947   0.580
 5998SOL    HW223991   5.867   2.910   0.550
 5998SOL     MW23992   5.942   2.891   0.590
 5999SOL     OW23993   5.634   5.141   0.635
 5999SOL    HW123994   5.598   5.094   0.559
 5999SOL    HW223995   5.664   5.072   0.693
 5999SOL     MW23996   5.633   5.127   0.633
 6000SOL     OW23997   2.553   5.308   3.437
 6000SOL    HW123998   2.534   5.355   3.519
 6000SOL    HW223999   2.506   5.226   3.446
 6000SOL     MW24000   2.545   5.304   3.448
   6.10000   6.10000   6.10000
